ITEM: TIMESTEP
0
ITEM: NUMBER OF ATOMS
256
ITEM: BOX BOUNDS
0 6.2544
0 6.2544
0 6.2544
ITEM: ATOMS fx fy fz 
-2.08385e-09 -2.08385e-09 8.25319e-06 
6.57514e-05 3.28757e-05 -7.40526e-06 
3.28757e-05 6.57514e-05 -7.40526e-06 
1.00747e-06 1.00747e-06 -0.00020395 
1.66533e-16 2.77556e-16 3.33067e-16 
8.32667e-17 2.43555e-15 1.29063e-15 
2.51882e-15 2.02963e-16 1.45717e-15 
2.58821e-15 2.31065e-15 -9.36751e-17 
1.94289e-16 2.77556e-17 -5.36238e-14 
2.498e-16 2.74086e-15 1.26121e-13 
2.87964e-15 -2.96638e-16 1.26954e-13 
2.92127e-15 2.61596e-15 -5.35787e-14 
2.08377e-09 2.08377e-09 8.25319e-06 
8.32667e-17 2.60209e-15 7.54952e-15 
2.60209e-15 2.44596e-16 7.99361e-15 
2.85189e-15 2.7825e-15 -8.22502e-14 
2.22045e-16 2.77556e-16 -3.33067e-16 
8.32667e-17 2.54657e-15 -4.30211e-16 
2.57433e-15 2.30718e-16 -2.63678e-16 
2.5327e-15 2.31065e-15 6.83481e-16 
1.66533e-16 -5.35127e-14 -2.22045e-16 
3.05311e-16 1.26787e-13 2.66454e-15 
2.87964e-15 -5.38024e-14 2.08167e-15 
2.35229e-15 1.27537e-13 -5.74193e-16 
3.33067e-16 -5.68434e-14 -5.68434e-14 
1.94289e-16 1.26621e-13 1.26454e-13 
2.6576e-15 -6.3621e-14 1.22694e-13 
2.29677e-15 1.2354e-13 -6.4301e-14 
2.15106e-16 -6.09512e-14 -7.46625e-14 
2.498e-16 1.26454e-13 6.10623e-15 
2.96291e-15 -5.36845e-14 7.63278e-15 
2.4078e-15 1.31076e-13 -7.27526e-14 
2.22045e-16 -5.32907e-14 -2.77556e-16 
2.498e-16 1.26787e-13 -4.44089e-16 
2.93515e-15 -5.4191e-14 -5.82867e-16 
2.32453e-15 1.27606e-13 -4.35416e-16 
1.8735e-16 -8.12683e-14 -3.33067e-16 
1.38778e-17 5.32907e-15 2.27596e-15 
2.32453e-15 -8.17593e-14 2.09555e-15 
2.61596e-15 5.77316e-15 3.41741e-16 
1.59595e-16 -7.4718e-14 -6.10623e-14 
6.57414e-05 -3.28707e-05 -7.41711e-06 
2.6576e-15 -7.20448e-14 1.30854e-13 
2.7825e-15 6.21725e-15 -5.33653e-14 
2.08377e-09 -2.08385e-09 8.25319e-06 
-6.57514e-05 3.28757e-05 -7.40526e-06 
2.13024e-15 -8.12041e-14 6.66134e-15 
1.03964e-09 -3.46541e-10 3.40922e-06 
1.8735e-16 -8.16014e-14 -2.22045e-16 
6.93889e-17 5.10703e-15 7.21645e-16 
2.32453e-15 -8.13152e-14 -1.80411e-16 
2.56045e-15 5.77316e-15 -2.13371e-16 
1.66533e-16 8.32667e-17 3.33067e-16 
2.77556e-17 -2.01228e-16 1.56819e-15 
2.51882e-15 2.44596e-16 1.52829e-15 
2.58821e-15 -1.66533e-16 2.30718e-16 
3.25737e-05 -1.38778e-16 -2.43247e-05 
6.57414e-05 3.28707e-05 -7.41711e-06 
8.12791e-06 -1.43982e-16 6.99223e-07 
2.97679e-15 -5.27356e-16 -5.37261e-14 
5.22753e-08 -2.498e-16 0.000115962 
-6.57514e-05 -3.28757e-05 -7.40526e-06 
-8.12789e-06 3.55618e-16 7.00616e-07 
1.03964e-09 3.46547e-10 3.40922e-06 
-3.259e-05 5.55112e-17 -2.43326e-05 
8.32667e-17 -9.02056e-17 -1.52656e-16 
2.51882e-15 3.27863e-16 -1.92554e-16 
2.5327e-15 -1.66533e-16 9.19403e-17 
-5.4734e-14 1.94289e-16 4.71845e-16 
-5.38181e-14 2.91434e-15 2.05391e-15 
1.27093e-13 0 2.33147e-15 
1.2762e-13 2.498e-15 -3.81639e-16 
-5.69544e-14 2.22045e-16 -5.65104e-14 
-6.32272e-14 2.52576e-15 1.22236e-13 
1.26996e-13 5.55112e-17 1.25566e-13 
1.23623e-13 2.22045e-15 -6.34839e-14 
-6.10623e-14 1.94289e-16 -7.44405e-14 
-5.38181e-14 3.02536e-15 7.18869e-15 
1.27176e-13 2.22045e-16 6.55032e-15 
1.31617e-13 2.22045e-15 -7.20604e-14 
-5.4734e-14 1.94289e-16 -5.55112e-17 
-5.41511e-14 3.02536e-15 -3.88578e-16 
1.27315e-13 2.22045e-16 -5.55112e-16 
1.27731e-13 2.498e-15 -6.80012e-16 
-5.73985e-14 -5.65936e-14 -5.55112e-17 
-6.30329e-14 1.22957e-13 2.16493e-15 
1.23429e-13 -6.40044e-14 2.10942e-15 
1.27454e-13 1.27398e-13 -8.88178e-16 
-5.9619e-14 -5.91194e-14 -5.92859e-14 
-7.37466e-14 1.2243e-13 1.22458e-13 
1.22943e-13 -7.37743e-14 1.21569e-13 
1.23512e-13 1.23068e-13 -7.41629e-14 
-6.38378e-14 -6.34492e-14 -6.80012e-14 
-6.30607e-14 1.22763e-13 6.52256e-15 
1.23179e-13 -6.34492e-14 6.43929e-15 
1.3145e-13 1.3084e-13 -6.30052e-14 
-5.73985e-14 -5.65936e-14 -2.22045e-16 
-6.28664e-14 1.23068e-13 -4.996e-16 
1.23596e-13 -6.38933e-14 -5.55112e-16 
1.2701e-13 1.27121e-13 -7.77156e-16 
-6.09512e-14 -7.48845e-14 1.66533e-16 
-5.37625e-14 4.96825e-15 3.05311e-15 
1.31006e-13 -7.23865e-14 1.9984e-15 
1.27509e-13 5.44009e-15 -2.08167e-16 
-6.37268e-14 -6.83342e-14 -6.35048e-14 
-6.32272e-14 4.7462e-15 1.23679e-13 
1.31062e-13 -6.22835e-14 1.3034e-13 
1.23679e-13 5.66214e-15 -6.34492e-14 
-6.77236e-14 -7.1998e-14 -7.2109e-14 
-5.41789e-14 4.96825e-15 7.96585e-15 
1.31339e-13 -7.26086e-14 5.77316e-15 
-1.03951e-09 -3.46541e-10 3.40922e-06 
-6.09512e-14 -7.49956e-14 1.66533e-16 
-5.40956e-14 4.96825e-15 6.66134e-16 
1.31117e-13 -7.26086e-14 -4.44089e-16 
1.27676e-13 5.44009e-15 3.26128e-16 
-5.4734e-14 -5.55112e-17 4.71845e-16 
-5.39291e-14 1.11022e-16 2.498e-15 
1.27162e-13 5.55112e-17 2.44249e-15 
1.27509e-13 -2.22045e-16 -4.30211e-16 
-5.69544e-14 1.66533e-16 -5.65104e-14 
-6.30607e-14 -1.94289e-16 1.22291e-13 
-8.12791e-06 1.11022e-16 6.99223e-07 
1.23623e-13 -1.66533e-16 -6.35325e-14 
-6.10623e-14 -3.60822e-16 -7.43294e-14 
-5.39291e-14 1.38778e-17 6.7446e-15 
8.1279e-06 5.55112e-17 7.00616e-07 
-1.03951e-09 3.46547e-10 3.40922e-06 
-5.4734e-14 -5.55112e-17 -5.55112e-17 
-5.41511e-14 5.55112e-17 -2.77556e-16 
1.27384e-13 5.55112e-17 0 
1.2762e-13 -2.22045e-16 -2.84495e-16 
-8.16014e-14 1.11022e-16 -2.22045e-16 
-8.16291e-14 2.33147e-15 2.13718e-15 
5.55112e-15 3.33067e-16 2.16493e-15 
5.55112e-15 2.83107e-15 3.88578e-16 
-7.51621e-14 1.11022e-16 -6.12843e-14 
-7.19633e-14 2.60902e-15 1.30645e-13 
-3.28707e-05 6.57414e-05 -7.41711e-06 
5.32907e-15 3.21965e-15 -5.34017e-14 
-2.08385e-09 2.08377e-09 8.25319e-06 
-8.17402e-14 2.55351e-15 6.43929e-15 
3.28757e-05 -6.57514e-05 -7.40526e-06 
-3.46541e-10 1.03964e-09 3.40922e-06 
-8.16014e-14 1.11022e-16 -2.22045e-16 
-8.15181e-14 2.55351e-15 -2.77556e-17 
5.32907e-15 3.60822e-16 2.22045e-16 
5.55112e-15 2.83107e-15 1.66533e-16 
-7.51621e-14 -6.08402e-14 0 
-7.19078e-14 1.3034e-13 2.10942e-15 
5.10703e-15 -5.3596e-14 2.72005e-15 
5.32907e-15 1.2787e-13 3.33067e-16 
-6.83897e-14 -6.36158e-14 -6.33937e-14 
-6.1659e-14 1.31117e-13 1.30562e-13 
4.66294e-15 -6.32133e-14 1.23568e-13 
5.55112e-15 1.24178e-13 -6.34492e-14 
-7.22755e-14 -6.77791e-14 -7.28306e-14 
-7.2109e-14 1.30618e-13 6.7446e-15 
4.66294e-15 -5.36932e-14 8.21565e-15 
-3.46541e-10 -1.03951e-09 3.40922e-06 
-7.51621e-14 -6.08402e-14 -3.33067e-16 
-7.22408e-14 1.30118e-13 -2.498e-16 
5.10703e-15 -5.39291e-14 3.88578e-16 
5.32907e-15 1.27898e-13 4.16334e-16 
-7.92699e-14 -7.87703e-14 -2.22045e-16 
-8.14904e-14 5.21805e-15 3.17801e-15 
5.10703e-15 -8.08936e-14 2.83107e-15 
4.88498e-15 6.52256e-15 3.88578e-16 
-7.27196e-14 -7.16649e-14 -6.77236e-14 
-6.57414e-05 -3.28707e-05 -7.41711e-06 
-3.28707e-05 -6.57414e-05 -7.41711e-06 
-6.57239e-05 -6.57239e-05 -0.000106003 
-7.91589e-14 -7.84928e-14 -2.22045e-16 
-8.13238e-14 5.10703e-15 9.57567e-16 
4.88498e-15 -8.07826e-14 9.4369e-16 
6.5769e-05 6.5769e-05 -0.000106059 
-8.18234e-14 0 -6.66134e-16 
-8.19067e-14 2.22045e-16 2.08167e-15 
-8.12516e-06 1.249e-16 -2.09683e-05 
5.10703e-15 5.55112e-17 2.498e-16 
-3.25737e-05 2.77556e-16 -2.43247e-05 
-6.57414e-05 3.28707e-05 -7.41711e-06 
0.00786608 2.35922e-16 0.00766414 
-6.57239e-05 6.57239e-05 -0.000106003 
-5.22754e-08 1.11022e-16 0.000115962 
6.57514e-05 -3.28757e-05 -7.40526e-06 
-0.00788679 2.35922e-16 0.00768082 
1.00747e-06 -1.00747e-06 -0.00020395 
3.259e-05 0 -2.43326e-05 
-8.16847e-14 2.22045e-16 -1.94289e-16 
8.13065e-06 2.08167e-16 -2.09806e-05 
6.5769e-05 -6.5769e-05 -0.000106059 
2.77556e-17 2.77556e-16 3.33067e-16 
5.55112e-17 2.34014e-15 1.36176e-15 
-1.249e-16 1.38778e-16 1.51268e-15 
-1.249e-16 2.5327e-15 2.02963e-16 
2.77556e-17 3.25737e-05 -2.43247e-05 
1.11022e-16 8.12791e-06 6.99223e-07 
3.28707e-05 6.57414e-05 -7.41711e-06 
6.93889e-17 2.94903e-15 -5.36984e-14 
2.77556e-17 5.22753e-08 0.000115962 
5.55112e-17 -8.12789e-06 7.00616e-07 
-3.28757e-05 -6.57514e-05 -7.40526e-06 
3.46547e-10 1.03964e-09 3.40922e-06 
2.77556e-17 -3.259e-05 -2.43326e-05 
5.55112e-17 2.34014e-15 -3.59088e-16 
-9.71445e-17 5.55112e-17 -2.08167e-16 
-1.52656e-16 2.5327e-15 6.41848e-17 
2.77556e-17 -5.44096e-14 -2.22045e-16 
1.66533e-16 1.26867e-13 2.73566e-15 
6.93889e-17 -5.37625e-14 2.2482e-15 
6.93889e-17 1.2744e-13 -6.10623e-16 
1.66533e-16 -5.6408e-14 -5.68521e-14 
1.66533e-16 -8.12791e-06 6.99223e-07 
1.38778e-17 -6.32411e-14 1.22749e-13 
-1.38778e-17 1.23776e-13 -6.38656e-14 
0 -6.09599e-14 -7.46035e-14 
1.66533e-16 8.1279e-06 7.00616e-07 
8.32667e-17 -5.38597e-14 7.63278e-15 
3.46547e-10 -1.03951e-09 3.40922e-06 
2.77556e-17 -5.41876e-14 1.66533e-16 
1.66533e-16 1.26867e-13 7.11237e-17 
9.71445e-17 -5.40401e-14 -3.05311e-16 
4.16334e-17 1.27565e-13 -6.93889e-17 
2.77556e-17 -8.12649e-14 -3.33067e-16 
5.55112e-17 -8.12516e-06 -2.09683e-05 
-1.45717e-16 -8.19345e-14 1.97065e-15 
-1.66533e-16 5.77316e-15 2.22045e-16 
0 -3.25737e-05 -2.43247e-05 
1.11022e-16 0.00786608 0.00766414 
3.28707e-05 -6.57414e-05 -7.41711e-06 
6.57239e-05 -6.57239e-05 -0.000106003 
5.55112e-17 -5.22754e-08 0.000115962 
5.55112e-17 -0.00788679 0.00768082 
-3.28757e-05 6.57514e-05 -7.40526e-06 
-1.00747e-06 1.00747e-06 -0.00020395 
2.77556e-17 3.259e-05 -2.43326e-05 
5.55112e-17 8.13065e-06 -2.09806e-05 
-1.17961e-16 -8.18234e-14 -8.32667e-17 
-6.5769e-05 6.5769e-05 -0.000106059 
0 8.32667e-17 3.33067e-16 
6.93889e-17 8.12516e-06 -2.09683e-05 
8.12516e-06 1.249e-16 -2.09683e-05 
-1.52656e-16 -1.66533e-16 6.10623e-16 
0 3.05311e-16 -0.000701148 
1.249e-16 -0.00786608 0.00766414 
-0.00786608 1.249e-16 0.00766414 
6.57239e-05 6.57239e-05 -0.000106003 
1.66533e-16 -2.498e-16 -0.0583617 
6.93889e-17 0.00788679 0.00768082 
0.00788679 1.11022e-16 0.00768082 
-1.00747e-06 -1.00747e-06 -0.00020395 
0 5.55112e-17 -0.000701682 
6.93889e-17 -8.13065e-06 -2.09806e-05 
-8.13065e-06 9.71445e-17 -2.09806e-05 
-6.5769e-05 -6.5769e-05 -0.000106059 
ITEM: TIMESTEP
1
ITEM: NUMBER OF ATOMS
256
ITEM: BOX BOUNDS
0 6.2544
0 6.2544
0 6.2544
ITEM: ATOMS fx fy fz 
-1.0809e-09 -1.0809e-09 8.29873e-06 
6.15792e-05 2.86472e-05 -7.4837e-06 
2.86472e-05 6.15792e-05 -7.4837e-06 
1.00468e-06 1.00468e-06 -0.000188017 
4.46365e-13 4.46254e-13 2.84525e-09 
-9.05063e-10 -1.42026e-09 1.03228e-09 
-1.42026e-09 -9.05063e-10 1.03228e-09 
2.58821e-15 2.31065e-15 -9.36751e-17 
1.65536e-07 1.65536e-07 -7.78201e-08 
6.26008e-08 5.76993e-08 1.04324e-08 
5.76993e-08 6.26008e-08 1.04324e-08 
-9.05168e-10 -9.05168e-10 4.17075e-10 
1.08075e-09 1.08075e-09 8.29873e-06 
-6.26401e-08 -5.77243e-08 1.04589e-08 
-5.77243e-08 -6.26401e-08 1.04589e-08 
5.76466e-12 5.76434e-12 -1.17141e-09 
-1.65769e-07 -1.65769e-07 -7.78972e-08 
9.0546e-10 1.42097e-09 1.03258e-09 
1.42097e-09 9.0546e-10 1.03258e-09 
9.05355e-10 9.05355e-10 4.17129e-10 
1.66533e-16 -5.35127e-14 -2.22045e-16 
-9.05064e-10 1.42039e-09 1.03228e-09 
2.87964e-15 -5.38024e-14 2.08167e-15 
2.35229e-15 1.27537e-13 -5.74193e-16 
-7.9992e-10 -5.65104e-14 6.07134e-10 
6.26008e-08 -5.76992e-08 1.04324e-08 
-3.4171e-10 -6.34545e-14 -2.08641e-11 
-9.05169e-10 9.05294e-10 4.17064e-10 
2.26365e-12 -8.33777e-14 -1.405e-09 
-6.26401e-08 5.77245e-08 1.04589e-08 
3.4171e-10 -5.37955e-14 -2.10275e-11 
5.74332e-12 -5.6096e-12 -1.1714e-09 
8.00045e-10 -5.39568e-14 6.07214e-10 
9.05459e-10 -1.42084e-09 1.03258e-09 
2.93515e-15 -5.4191e-14 -5.82867e-16 
9.05355e-10 -9.05225e-10 4.17129e-10 
4.46499e-13 -5.27522e-13 2.84525e-09 
1.35822e-07 -5.7659e-08 -1.88717e-07 
-1.42026e-09 9.04982e-10 1.03228e-09 
3.13284e-13 -8.26006e-14 1.34922e-09 
1.65536e-07 -1.65536e-07 -7.78201e-08 
6.15785e-05 -2.86527e-05 -7.49439e-06 
5.76993e-08 -6.26008e-08 1.04324e-08 
1.35795e-07 -6.25586e-08 -7.24457e-08 
1.08075e-09 -1.0809e-09 8.29873e-06 
-6.15792e-05 2.86472e-05 -7.4837e-06 
-5.77244e-08 6.264e-08 1.04589e-08 
1.02629e-09 -3.14635e-10 3.49787e-06 
-1.65769e-07 1.65769e-07 -7.78972e-08 
-1.35984e-07 5.77647e-08 -1.88991e-07 
1.42097e-09 -9.05541e-10 1.03258e-09 
-1.36012e-07 6.26824e-08 -7.2533e-08 
-1.49248e-11 1.11022e-16 -4.92356e-08 
1.35822e-07 5.7659e-08 -1.88717e-07 
5.3519e-08 2.44596e-16 -5.48901e-08 
3.13284e-13 8.77076e-14 1.34922e-09 
2.47812e-05 -2.94209e-15 -1.65579e-05 
6.15785e-05 2.86527e-05 -7.49439e-06 
8.38606e-06 1.9363e-14 8.20494e-07 
1.35795e-07 6.25586e-08 -7.24457e-08 
5.37877e-08 1.64313e-14 0.000114561 
-6.15792e-05 -2.86472e-05 -7.4837e-06 
-8.38687e-06 -5.30825e-16 8.22046e-07 
1.02628e-09 3.14614e-10 3.49787e-06 
-2.47791e-05 1.21569e-14 -1.65474e-05 
-1.35984e-07 -5.77647e-08 -1.88991e-07 
-5.35951e-08 3.27863e-16 -5.49696e-08 
-1.36012e-07 -6.26824e-08 -7.2533e-08 
-5.4734e-14 1.94289e-16 4.71845e-16 
-5.38181e-14 2.91434e-15 2.05391e-15 
1.42039e-09 -9.05064e-10 1.03228e-09 
1.2762e-13 2.498e-15 -3.81639e-16 
-5.67324e-14 -7.9992e-10 6.07134e-10 
-6.39766e-14 -3.4171e-10 -2.08644e-11 
-5.76992e-08 6.26008e-08 1.04324e-08 
9.05294e-10 -9.05169e-10 4.17065e-10 
-8.32667e-14 2.26349e-12 -1.405e-09 
-5.42344e-14 3.41711e-10 -2.10291e-11 
5.77245e-08 -6.26401e-08 1.04589e-08 
-5.6099e-12 5.74385e-12 -1.1714e-09 
-5.4623e-14 8.00045e-10 6.07214e-10 
-5.41511e-14 3.02536e-15 -3.88578e-16 
-1.42084e-09 9.0546e-10 1.03258e-09 
-9.05225e-10 9.05355e-10 4.17129e-10 
-5.73985e-14 -5.65936e-14 -5.55112e-17 
-6.30329e-14 1.22957e-13 2.16493e-15 
1.23429e-13 -6.40044e-14 2.10942e-15 
1.27454e-13 1.27398e-13 -8.88178e-16 
-5.9619e-14 -5.91194e-14 -5.92859e-14 
-7.38576e-14 3.41835e-10 -2.0865e-11 
3.41835e-10 -7.36078e-14 -2.08658e-11 
9.05295e-10 9.05294e-10 4.17054e-10 
-6.37268e-14 -6.37823e-14 2.2772e-11 
-6.35048e-14 -3.41585e-10 -2.10295e-11 
-3.41585e-10 -6.40044e-14 -2.10291e-11 
-5.59403e-12 -5.59497e-12 -1.17139e-09 
-5.73985e-14 -5.65936e-14 -2.22045e-16 
-6.28664e-14 1.23068e-13 -4.996e-16 
1.23596e-13 -6.38933e-14 -5.55112e-16 
-9.05226e-10 -9.05226e-10 4.17129e-10 
-6.09512e-14 -7.48845e-14 1.66533e-16 
-5.37903e-14 3.41647e-10 6.77698e-10 
1.4204e-09 9.04992e-10 1.03228e-09 
-1.82632e-13 -8.17124e-14 1.34922e-09 
-6.32827e-14 7.99851e-10 6.07127e-10 
-8.45435e-14 -1.66773e-08 5.61949e-09 
-5.76992e-08 -6.26008e-08 1.04324e-08 
-1.35795e-07 -6.25586e-08 -7.24457e-08 
-9.10383e-14 -2.33369e-12 -1.405e-09 
-7.54397e-14 1.67e-08 5.62975e-09 
5.77245e-08 6.264e-08 1.04589e-08 
-1.02603e-09 -3.14666e-10 3.49787e-06 
-6.10623e-14 -8.0012e-10 6.07215e-10 
-5.40401e-14 -3.41774e-10 6.77856e-10 
-1.42084e-09 -9.05532e-10 1.03258e-09 
1.36012e-07 6.26824e-08 -7.2533e-08 
-5.4845e-14 -5.55112e-17 4.39056e-10 
-5.38181e-14 -3.41641e-10 6.77697e-10 
-5.35189e-08 -1.11022e-16 -5.48901e-08 
-1.82632e-13 8.74301e-14 1.34922e-09 
-6.4504e-14 2.22045e-16 -1.47349e-08 
-8.45435e-14 1.66773e-08 5.61949e-09 
-8.38606e-06 -1.72085e-15 8.20494e-07 
-1.35795e-07 6.25586e-08 -7.24457e-08 
-1.02474e-13 3.747e-15 3.43338e-08 
-7.53564e-14 -1.67e-08 5.62974e-09 
8.38687e-06 -1.66533e-16 8.22046e-07 
-1.02602e-09 3.14648e-10 3.49787e-06 
-5.42899e-14 -1.66533e-16 -1.47536e-08 
-5.41511e-14 3.41778e-10 6.77856e-10 
5.35952e-08 2.77556e-16 -5.49696e-08 
1.36012e-07 -6.26824e-08 -7.2533e-08 
-5.28022e-13 4.46088e-13 2.84525e-09 
9.04982e-10 -1.42026e-09 1.03228e-09 
-5.7659e-08 1.35822e-07 -1.88717e-07 
-8.21565e-14 3.13527e-13 1.34922e-09 
-1.65536e-07 1.65536e-07 -7.78201e-08 
-6.26008e-08 5.76993e-08 1.04324e-08 
-2.86527e-05 6.15785e-05 -7.49439e-06 
-6.25586e-08 1.35795e-07 -7.24457e-08 
-1.0809e-09 1.08075e-09 8.29873e-06 
6.264e-08 -5.77244e-08 1.04589e-08 
2.86472e-05 -6.15792e-05 -7.4837e-06 
-3.14635e-10 1.02629e-09 3.49787e-06 
1.65769e-07 -1.65769e-07 -7.78972e-08 
-9.05541e-10 1.42097e-09 1.03258e-09 
5.77647e-08 -1.35984e-07 -1.88991e-07 
6.26824e-08 -1.36012e-07 -7.2533e-08 
-7.51621e-14 -6.08402e-14 0 
9.04992e-10 1.4204e-09 1.03228e-09 
3.41646e-10 -5.37348e-14 6.77698e-10 
-8.26006e-14 -1.82271e-13 1.34922e-09 
7.99852e-10 -6.32827e-14 6.07127e-10 
-6.26008e-08 -5.76992e-08 1.04324e-08 
-1.66773e-08 -8.42798e-14 5.61949e-09 
-6.25586e-08 -1.35795e-07 -7.24457e-08 
-2.33447e-12 -9.10938e-14 -1.405e-09 
6.264e-08 5.77245e-08 1.04589e-08 
1.67e-08 -7.5065e-14 5.62974e-09 
-3.14666e-10 -1.02603e-09 3.49787e-06 
-8.0012e-10 -6.05627e-14 6.07215e-10 
-9.05531e-10 -1.42084e-09 1.03258e-09 
-3.41773e-10 -5.39291e-14 6.77856e-10 
6.26824e-08 1.36012e-07 -7.2533e-08 
-5.25469e-13 -5.25024e-13 2.84525e-09 
-1.35823e-07 -5.7659e-08 -1.88717e-07 
-5.7659e-08 -1.35823e-07 -1.88717e-07 
8.18456e-12 8.18665e-12 -6.1841e-08 
-1.65536e-07 -1.65536e-07 -7.78201e-08 
-6.15785e-05 -2.86527e-05 -7.49439e-06 
-2.86527e-05 -6.15785e-05 -7.49439e-06 
-6.15606e-05 -6.15606e-05 -9.77886e-05 
1.65769e-07 1.65769e-07 -7.78972e-08 
1.35984e-07 5.77647e-08 -1.88991e-07 
5.77647e-08 1.35984e-07 -1.88991e-07 
6.15972e-05 6.15972e-05 -9.78283e-05 
1.48469e-11 1.66533e-16 -4.92356e-08 
-1.35823e-07 5.7659e-08 -1.88717e-07 
-8.38367e-06 -8.42382e-15 -2.15516e-05 
8.18501e-12 -8.17976e-12 -6.1841e-08 
-2.47812e-05 1.11022e-16 -1.65579e-05 
-6.15785e-05 2.86527e-05 -7.49439e-06 
0.00780134 8.5626e-15 0.00760694 
-6.15606e-05 6.15606e-05 -9.77886e-05 
-5.37877e-08 2.07057e-14 0.000114561 
6.15792e-05 -2.86472e-05 -7.4837e-06 
-0.00782176 1.00475e-14 0.0076234 
1.00468e-06 -1.00468e-06 -0.000188017 
2.47791e-05 2.0095e-14 -1.65474e-05 
1.35984e-07 -5.77647e-08 -1.88991e-07 
8.38926e-06 2.1691e-14 -2.15648e-05 
6.15972e-05 -6.15972e-05 -9.78283e-05 
5.55112e-17 -1.49246e-11 -4.92356e-08 
4.16334e-17 5.3519e-08 -5.48901e-08 
5.7659e-08 1.35822e-07 -1.88717e-07 
8.79435e-14 3.13062e-13 1.34922e-09 
-3.02536e-15 2.47812e-05 -1.65579e-05 
1.90958e-14 8.38606e-06 8.20494e-07 
2.86527e-05 6.15785e-05 -7.49439e-06 
6.25586e-08 1.35795e-07 -7.24457e-08 
1.64868e-14 5.37877e-08 0.000114561 
-4.44089e-16 -8.38687e-06 8.22046e-07 
-2.86472e-05 -6.15792e-05 -7.4837e-06 
3.14614e-10 1.02628e-09 3.49787e-06 
1.2268e-14 -2.47791e-05 -1.65474e-05 
5.55112e-17 -5.35951e-08 -5.49696e-08 
-5.77647e-08 -1.35984e-07 -1.88991e-07 
-6.26824e-08 -1.36012e-07 -7.2533e-08 
2.77556e-17 -5.41876e-14 4.39055e-10 
1.52656e-16 -5.35189e-08 -5.48901e-08 
-3.41642e-10 -5.4054e-14 6.77697e-10 
8.75431e-14 -1.82646e-13 1.34922e-09 
2.22045e-16 -6.46237e-14 -1.47349e-08 
1.92485e-14 -8.38606e-06 8.20494e-07 
1.66773e-08 -8.44741e-14 5.61949e-09 
6.25586e-08 -1.35795e-07 -7.24457e-08 
4.13558e-15 -1.0226e-13 3.43338e-08 
5.56499e-15 8.38687e-06 8.22046e-07 
-1.67e-08 -7.5176e-14 5.62974e-09 
3.14648e-10 -1.02602e-09 3.49787e-06 
5.55112e-17 -5.36324e-14 -1.47536e-08 
1.80411e-16 5.35952e-08 -5.49696e-08 
3.41778e-10 -5.41511e-14 6.77855e-10 
-6.26824e-08 1.36012e-07 -7.2533e-08 
0 1.48476e-11 -4.92356e-08 
-8.27116e-15 -8.38367e-06 -2.15516e-05 
5.7659e-08 -1.35823e-07 -1.88717e-07 
-8.18001e-12 8.1859e-12 -6.1841e-08 
0 -2.47812e-05 -1.65579e-05 
8.25728e-15 0.00780134 0.00760694 
2.86527e-05 -6.15785e-05 -7.49439e-06 
6.15606e-05 -6.15606e-05 -9.77886e-05 
2.11775e-14 -5.37877e-08 0.000114561 
1.02696e-14 -0.00782176 0.0076234 
-2.86472e-05 6.15792e-05 -7.4837e-06 
-1.00468e-06 1.00468e-06 -0.000188017 
1.97065e-14 2.47791e-05 -1.65474e-05 
2.14967e-14 8.38926e-06 -2.15648e-05 
-5.77647e-08 1.35984e-07 -1.88991e-07 
-6.15972e-05 6.15972e-05 -9.78283e-05 
1.38223e-14 1.39333e-14 -3.43458e-08 
-8.39606e-15 8.38367e-06 -2.15516e-05 
8.38367e-06 -8.45157e-15 -2.15516e-05 
-8.18022e-12 -8.18029e-12 -6.1841e-08 
-9.99201e-16 -6.38378e-16 -0.000696928 
1.35031e-14 -0.00780134 0.00760694 
-0.00780134 1.38084e-14 0.00760694 
6.15606e-05 6.15606e-05 -9.77886e-05 
-2.85882e-15 -3.16934e-15 -0.0580883 
-4.27436e-15 0.00782176 0.0076234 
0.00782176 -4.78784e-15 0.0076234 
-1.00468e-06 -1.00468e-06 -0.000188017 
2.44249e-14 2.42584e-14 -0.000697465 
1.88322e-14 -8.38926e-06 -2.15648e-05 
-8.38926e-06 1.85685e-14 -2.15648e-05 
-6.15972e-05 -6.15972e-05 -9.78283e-05 
