# Si primitive	

256 atoms
1 atom types	

0.0 6.2544 xlo xhi
0.0 6.2544 ylo yhi
0.0 6.2544 zlo zhi

Masses

1 1.0

Atoms				

1.00000000	1.00000000	0.00000000	0.00000000	0.00000000
2.00000000	1.00000000	0.00000000	0.78180000	0.78180000
3.00000000	1.00000000	0.78180000	0.00000000	0.78180000
4.00000000	1.00000000	0.78180000	0.78180000	0.00000000
5.00000000	1.00000000	-3.12720000	-3.12720000	-3.12720000
6.00000000	1.00000000	-3.12720000	-2.34540000	-2.34540000
7.00000000	1.00000000	-2.34540000	-3.12720000	-2.34540000
8.00000000	1.00000000	-2.34540000	-2.34540000	-3.12720000
9.00000000	1.00000000	-3.12720000	-3.12720000	-1.56360000
10.00000000	1.00000000	-3.12720000	-2.34540000	-0.78180000
11.00000000	1.00000000	-2.34540000	-3.12720000	-0.78180000
12.00000000	1.00000000	-2.34540000	-2.34540000	-1.56360000
13.00000000	1.00000000	-3.12720000	-3.12720000	0.00000000
14.00000000	1.00000000	-3.12720000	-2.34540000	0.78180000
15.00000000	1.00000000	-2.34540000	-3.12720000	0.78180000
16.00000000	1.00000000	-2.34540000	-2.34540000	0.00000000
17.00000000	1.00000000	-3.12720000	-3.12720000	1.56360000
18.00000000	1.00000000	-3.12720000	-2.34540000	2.34540000
19.00000000	1.00000000	-2.34540000	-3.12720000	2.34540000
20.00000000	1.00000000	-2.34540000	-2.34540000	1.56360000
21.00000000	1.00000000	-3.12720000	-1.56360000	-3.12720000
22.00000000	1.00000000	-3.12720000	-0.78180000	-2.34540000
23.00000000	1.00000000	-2.34540000	-1.56360000	-2.34540000
24.00000000	1.00000000	-2.34540000	-0.78180000	-3.12720000
25.00000000	1.00000000	-3.12720000	-1.56360000	-1.56360000
26.00000000	1.00000000	-3.12720000	-0.78180000	-0.78180000
27.00000000	1.00000000	-2.34540000	-1.56360000	-0.78180000
28.00000000	1.00000000	-2.34540000	-0.78180000	-1.56360000
29.00000000	1.00000000	-3.12720000	-1.56360000	0.00000000
30.00000000	1.00000000	-3.12720000	-0.78180000	0.78180000
31.00000000	1.00000000	-2.34540000	-1.56360000	0.78180000
32.00000000	1.00000000	-2.34540000	-0.78180000	0.00000000
33.00000000	1.00000000	-3.12720000	-1.56360000	1.56360000
34.00000000	1.00000000	-3.12720000	-0.78180000	2.34540000
35.00000000	1.00000000	-2.34540000	-1.56360000	2.34540000
36.00000000	1.00000000	-2.34540000	-0.78180000	1.56360000
37.00000000	1.00000000	-3.12720000	0.00000000	-3.12720000
38.00000000	1.00000000	-3.12720000	0.78180000	-2.34540000
39.00000000	1.00000000	-2.34540000	0.00000000	-2.34540000
40.00000000	1.00000000	-2.34540000	0.78180000	-3.12720000
41.00000000	1.00000000	-3.12720000	0.00000000	-1.56360000
42.00000000	1.00000000	-3.12720000	0.78180000	-0.78180000
43.00000000	1.00000000	-2.34540000	0.00000000	-0.78180000
44.00000000	1.00000000	-2.34540000	0.78180000	-1.56360000
45.00000000	1.00000000	-3.12720000	0.00000000	0.00000000
46.00000000	1.00000000	-3.12720000	0.78180000	0.78180000
47.00000000	1.00000000	-2.34540000	0.00000000	0.78180000
48.00000000	1.00000000	-2.34540000	0.78180000	0.00000000
49.00000000	1.00000000	-3.12720000	0.00000000	1.56360000
50.00000000	1.00000000	-3.12720000	0.78180000	2.34540000
51.00000000	1.00000000	-2.34540000	0.00000000	2.34540000
52.00000000	1.00000000	-2.34540000	0.78180000	1.56360000
53.00000000	1.00000000	-3.12720000	1.56360000	-3.12720000
54.00000000	1.00000000	-3.12720000	2.34540000	-2.34540000
55.00000000	1.00000000	-2.34540000	1.56360000	-2.34540000
56.00000000	1.00000000	-2.34540000	2.34540000	-3.12720000
57.00000000	1.00000000	-3.12720000	1.56360000	-1.56360000
58.00000000	1.00000000	-3.12720000	2.34540000	-0.78180000
59.00000000	1.00000000	-2.34540000	1.56360000	-0.78180000
60.00000000	1.00000000	-2.34540000	2.34540000	-1.56360000
61.00000000	1.00000000	-3.12720000	1.56360000	0.00000000
62.00000000	1.00000000	-3.12720000	2.34540000	0.78180000
63.00000000	1.00000000	-2.34540000	1.56360000	0.78180000
64.00000000	1.00000000	-2.34540000	2.34540000	0.00000000
65.00000000	1.00000000	-3.12720000	1.56360000	1.56360000
66.00000000	1.00000000	-3.12720000	2.34540000	2.34540000
67.00000000	1.00000000	-2.34540000	1.56360000	2.34540000
68.00000000	1.00000000	-2.34540000	2.34540000	1.56360000
69.00000000	1.00000000	-1.56360000	-3.12720000	-3.12720000
70.00000000	1.00000000	-1.56360000	-2.34540000	-2.34540000
71.00000000	1.00000000	-0.78180000	-3.12720000	-2.34540000
72.00000000	1.00000000	-0.78180000	-2.34540000	-3.12720000
73.00000000	1.00000000	-1.56360000	-3.12720000	-1.56360000
74.00000000	1.00000000	-1.56360000	-2.34540000	-0.78180000
75.00000000	1.00000000	-0.78180000	-3.12720000	-0.78180000
76.00000000	1.00000000	-0.78180000	-2.34540000	-1.56360000
77.00000000	1.00000000	-1.56360000	-3.12720000	0.00000000
78.00000000	1.00000000	-1.56360000	-2.34540000	0.78180000
79.00000000	1.00000000	-0.78180000	-3.12720000	0.78180000
80.00000000	1.00000000	-0.78180000	-2.34540000	0.00000000
81.00000000	1.00000000	-1.56360000	-3.12720000	1.56360000
82.00000000	1.00000000	-1.56360000	-2.34540000	2.34540000
83.00000000	1.00000000	-0.78180000	-3.12720000	2.34540000
84.00000000	1.00000000	-0.78180000	-2.34540000	1.56360000
85.00000000	1.00000000	-1.56360000	-1.56360000	-3.12720000
86.00000000	1.00000000	-1.56360000	-0.78180000	-2.34540000
87.00000000	1.00000000	-0.78180000	-1.56360000	-2.34540000
88.00000000	1.00000000	-0.78180000	-0.78180000	-3.12720000
89.00000000	1.00000000	-1.56360000	-1.56360000	-1.56360000
90.00000000	1.00000000	-1.56360000	-0.78180000	-0.78180000
91.00000000	1.00000000	-0.78180000	-1.56360000	-0.78180000
92.00000000	1.00000000	-0.78180000	-0.78180000	-1.56360000
93.00000000	1.00000000	-1.56360000	-1.56360000	0.00000000
94.00000000	1.00000000	-1.56360000	-0.78180000	0.78180000
95.00000000	1.00000000	-0.78180000	-1.56360000	0.78180000
96.00000000	1.00000000	-0.78180000	-0.78180000	0.00000000
97.00000000	1.00000000	-1.56360000	-1.56360000	1.56360000
98.00000000	1.00000000	-1.56360000	-0.78180000	2.34540000
99.00000000	1.00000000	-0.78180000	-1.56360000	2.34540000
100.00000000	1.00000000	-0.78180000	-0.78180000	1.56360000
101.00000000	1.00000000	-1.56360000	0.00000000	-3.12720000
102.00000000	1.00000000	-1.56360000	0.78180000	-2.34540000
103.00000000	1.00000000	-0.78180000	0.00000000	-2.34540000
104.00000000	1.00000000	-0.78180000	0.78180000	-3.12720000
105.00000000	1.00000000	-1.56360000	0.00000000	-1.56360000
106.00000000	1.00000000	-1.56360000	0.78180000	-0.78180000
107.00000000	1.00000000	-0.78180000	0.00000000	-0.78180000
108.00000000	1.00000000	-0.78180000	0.78180000	-1.56360000
109.00000000	1.00000000	-1.56360000	0.00000000	0.00000000
110.00000000	1.00000000	-1.56360000	0.78180000	0.78180000
111.00000000	1.00000000	-0.78180000	0.00000000	0.78180000
112.00000000	1.00000000	-0.78180000	0.78180000	0.00000000
113.00000000	1.00000000	-1.56360000	0.00000000	1.56360000
114.00000000	1.00000000	-1.56360000	0.78180000	2.34540000
115.00000000	1.00000000	-0.78180000	0.00000000	2.34540000
116.00000000	1.00000000	-0.78180000	0.78180000	1.56360000
117.00000000	1.00000000	-1.56360000	1.56360000	-3.12720000
118.00000000	1.00000000	-1.56360000	2.34540000	-2.34540000
119.00000000	1.00000000	-0.78180000	1.56360000	-2.34540000
120.00000000	1.00000000	-0.78180000	2.34540000	-3.12720000
121.00000000	1.00000000	-1.56360000	1.56360000	-1.56360000
122.00000000	1.00000000	-1.56360000	2.34540000	-0.78180000
123.00000000	1.00000000	-0.78180000	1.56360000	-0.78180000
124.00000000	1.00000000	-0.78180000	2.34540000	-1.56360000
125.00000000	1.00000000	-1.56360000	1.56360000	0.00000000
126.00000000	1.00000000	-1.56360000	2.34540000	0.78180000
127.00000000	1.00000000	-0.78180000	1.56360000	0.78180000
128.00000000	1.00000000	-0.78180000	2.34540000	0.00000000
129.00000000	1.00000000	-1.56360000	1.56360000	1.56360000
130.00000000	1.00000000	-1.56360000	2.34540000	2.34540000
131.00000000	1.00000000	-0.78180000	1.56360000	2.34540000
132.00000000	1.00000000	-0.78180000	2.34540000	1.56360000
133.00000000	1.00000000	0.00000000	-3.12720000	-3.12720000
134.00000000	1.00000000	0.00000000	-2.34540000	-2.34540000
135.00000000	1.00000000	0.78180000	-3.12720000	-2.34540000
136.00000000	1.00000000	0.78180000	-2.34540000	-3.12720000
137.00000000	1.00000000	0.00000000	-3.12720000	-1.56360000
138.00000000	1.00000000	0.00000000	-2.34540000	-0.78180000
139.00000000	1.00000000	0.78180000	-3.12720000	-0.78180000
140.00000000	1.00000000	0.78180000	-2.34540000	-1.56360000
141.00000000	1.00000000	0.00000000	-3.12720000	0.00000000
142.00000000	1.00000000	0.00000000	-2.34540000	0.78180000
143.00000000	1.00000000	0.78180000	-3.12720000	0.78180000
144.00000000	1.00000000	0.78180000	-2.34540000	0.00000000
145.00000000	1.00000000	0.00000000	-3.12720000	1.56360000
146.00000000	1.00000000	0.00000000	-2.34540000	2.34540000
147.00000000	1.00000000	0.78180000	-3.12720000	2.34540000
148.00000000	1.00000000	0.78180000	-2.34540000	1.56360000
149.00000000	1.00000000	0.00000000	-1.56360000	-3.12720000
150.00000000	1.00000000	0.00000000	-0.78180000	-2.34540000
151.00000000	1.00000000	0.78180000	-1.56360000	-2.34540000
152.00000000	1.00000000	0.78180000	-0.78180000	-3.12720000
153.00000000	1.00000000	0.00000000	-1.56360000	-1.56360000
154.00000000	1.00000000	0.00000000	-0.78180000	-0.78180000
155.00000000	1.00000000	0.78180000	-1.56360000	-0.78180000
156.00000000	1.00000000	0.78180000	-0.78180000	-1.56360000
157.00000000	1.00000000	0.00000000	-1.56360000	0.00000000
158.00000000	1.00000000	0.00000000	-0.78180000	0.78180000
159.00000000	1.00000000	0.78180000	-1.56360000	0.78180000
160.00000000	1.00000000	0.78180000	-0.78180000	0.00000000
161.00000000	1.00000000	0.00000000	-1.56360000	1.56360000
162.00000000	1.00000000	0.00000000	-0.78180000	2.34540000
163.00000000	1.00000000	0.78180000	-1.56360000	2.34540000
164.00000000	1.00000000	0.78180000	-0.78180000	1.56360000
165.00000000	1.00000000	0.00000000	0.00000000	-3.12720000
166.00000000	1.00000000	0.00000000	0.78180000	-2.34540000
167.00000000	1.00000000	0.78180000	0.00000000	-2.34540000
168.00000000	1.00000000	0.78180000	0.78180000	-3.12720000
169.00000000	1.00000000	0.00000000	0.00000000	-1.56360000
170.00000000	1.00000000	0.00000000	0.78180000	-0.78180000
171.00000000	1.00000000	0.78180000	0.00000000	-0.78180000
172.00000000	1.00000000	0.78180000	0.78180000	-1.56360000
173.00000000	1.00000000	0.00000000	0.00000000	1.56360000
174.00000000	1.00000000	0.00000000	0.78180000	2.34540000
175.00000000	1.00000000	0.78180000	0.00000000	2.34540000
176.00000000	1.00000000	0.78180000	0.78180000	1.56360000
177.00000000	1.00000000	0.00000000	1.56360000	-3.12720000
178.00000000	1.00000000	0.00000000	2.34540000	-2.34540000
179.00000000	1.00000000	0.78180000	1.56360000	-2.34540000
180.00000000	1.00000000	0.78180000	2.34540000	-3.12720000
181.00000000	1.00000000	0.00000000	1.56360000	-1.56360000
182.00000000	1.00000000	0.00000000	2.34540000	-0.78180000
183.00000000	1.00000000	0.78180000	1.56360000	-0.78180000
184.00000000	1.00000000	0.78180000	2.34540000	-1.56360000
185.00000000	1.00000000	0.00000000	1.56360000	0.00000000
186.00000000	1.00000000	0.00000000	2.34540000	0.78180000
187.00000000	1.00000000	0.78180000	1.56360000	0.78180000
188.00000000	1.00000000	0.78180000	2.34540000	0.00000000
189.00000000	1.00000000	0.00000000	1.56360000	1.56360000
190.00000000	1.00000000	0.00000000	2.34540000	2.34540000
191.00000000	1.00000000	0.78180000	1.56360000	2.34540000
192.00000000	1.00000000	0.78180000	2.34540000	1.56360000
193.00000000	1.00000000	1.56360000	-3.12720000	-3.12720000
194.00000000	1.00000000	1.56360000	-2.34540000	-2.34540000
195.00000000	1.00000000	2.34540000	-3.12720000	-2.34540000
196.00000000	1.00000000	2.34540000	-2.34540000	-3.12720000
197.00000000	1.00000000	1.56360000	-3.12720000	-1.56360000
198.00000000	1.00000000	1.56360000	-2.34540000	-0.78180000
199.00000000	1.00000000	2.34540000	-3.12720000	-0.78180000
200.00000000	1.00000000	2.34540000	-2.34540000	-1.56360000
201.00000000	1.00000000	1.56360000	-3.12720000	0.00000000
202.00000000	1.00000000	1.56360000	-2.34540000	0.78180000
203.00000000	1.00000000	2.34540000	-3.12720000	0.78180000
204.00000000	1.00000000	2.34540000	-2.34540000	0.00000000
205.00000000	1.00000000	1.56360000	-3.12720000	1.56360000
206.00000000	1.00000000	1.56360000	-2.34540000	2.34540000
207.00000000	1.00000000	2.34540000	-3.12720000	2.34540000
208.00000000	1.00000000	2.34540000	-2.34540000	1.56360000
209.00000000	1.00000000	1.56360000	-1.56360000	-3.12720000
210.00000000	1.00000000	1.56360000	-0.78180000	-2.34540000
211.00000000	1.00000000	2.34540000	-1.56360000	-2.34540000
212.00000000	1.00000000	2.34540000	-0.78180000	-3.12720000
213.00000000	1.00000000	1.56360000	-1.56360000	-1.56360000
214.00000000	1.00000000	1.56360000	-0.78180000	-0.78180000
215.00000000	1.00000000	2.34540000	-1.56360000	-0.78180000
216.00000000	1.00000000	2.34540000	-0.78180000	-1.56360000
217.00000000	1.00000000	1.56360000	-1.56360000	0.00000000
218.00000000	1.00000000	1.56360000	-0.78180000	0.78180000
219.00000000	1.00000000	2.34540000	-1.56360000	0.78180000
220.00000000	1.00000000	2.34540000	-0.78180000	0.00000000
221.00000000	1.00000000	1.56360000	-1.56360000	1.56360000
222.00000000	1.00000000	1.56360000	-0.78180000	2.34540000
223.00000000	1.00000000	2.34540000	-1.56360000	2.34540000
224.00000000	1.00000000	2.34540000	-0.78180000	1.56360000
225.00000000	1.00000000	1.56360000	0.00000000	-3.12720000
226.00000000	1.00000000	1.56360000	0.78180000	-2.34540000
227.00000000	1.00000000	2.34540000	0.00000000	-2.34540000
228.00000000	1.00000000	2.34540000	0.78180000	-3.12720000
229.00000000	1.00000000	1.56360000	0.00000000	-1.56360000
230.00000000	1.00000000	1.56360000	0.78180000	-0.78180000
231.00000000	1.00000000	2.34540000	0.00000000	-0.78180000
232.00000000	1.00000000	2.34540000	0.78180000	-1.56360000
233.00000000	1.00000000	1.56360000	0.00000000	0.00000000
234.00000000	1.00000000	1.56360000	0.78180000	0.78180000
235.00000000	1.00000000	2.34540000	0.00000000	0.78180000
236.00000000	1.00000000	2.34540000	0.78180000	0.00000000
237.00000000	1.00000000	1.56360000	0.00000000	1.56360000
238.00000000	1.00000000	1.56360000	0.78180000	2.34540000
239.00000000	1.00000000	2.34540000	0.00000000	2.34540000
240.00000000	1.00000000	2.34540000	0.78180000	1.56360000
241.00000000	1.00000000	1.56360000	1.56360000	-3.12720000
242.00000000	1.00000000	1.56360000	2.34540000	-2.34540000
243.00000000	1.00000000	2.34540000	1.56360000	-2.34540000
244.00000000	1.00000000	2.34540000	2.34540000	-3.12720000
245.00000000	1.00000000	1.56360000	1.56360000	-1.56360000
246.00000000	1.00000000	1.56360000	2.34540000	-0.78180000
247.00000000	1.00000000	2.34540000	1.56360000	-0.78180000
248.00000000	1.00000000	2.34540000	2.34540000	-1.56360000
249.00000000	1.00000000	1.56360000	1.56360000	0.00020000
250.00000000	1.00000000	1.56360000	2.34540000	0.78180000
251.00000000	1.00000000	2.34540000	1.56360000	0.78180000
252.00000000	1.00000000	2.34540000	2.34540000	0.00000000
253.00000000	1.00000000	1.56360000	1.56360000	1.56360000
254.00000000	1.00000000	1.56360000	2.34540000	2.34540000
255.00000000	1.00000000	2.34540000	1.56360000	2.34540000
256.00000000	1.00000000	2.34540000	2.34540000	1.56360000
	 1.0000000	 1.5636000	-0.7818000	 2.3454000
223.0000000	 1.0000000	 2.3454000	-1.5636000	 2.3454000
224.0000000	 1.0000000	 2.3454000	