# Si primitive	

256 atoms
1 atom types	

0.0 6.2544 xlo xhi
0.0 6.2544 ylo yhi
0.0 6.2544 zlo zhi

Masses

1 1.0

Atoms				

  1.000000	  1.000000	  0.000010	  0.000000	  0.000000
  2.000000	  1.000000	  0.000000	  0.781800	  0.781800
  3.000000	  1.000000	  0.781800	  0.000000	  0.781800
  4.000000	  1.000000	  0.781800	  0.781800	  0.000000
  5.000000	  1.000000	 -3.127200	 -3.127200	 -3.127200
  6.000000	  1.000000	 -3.127200	 -2.345400	 -2.345400
  7.000000	  1.000000	 -2.345400	 -3.127200	 -2.345400
  8.000000	  1.000000	 -2.345400	 -2.345400	 -3.127200
  9.000000	  1.000000	 -3.127200	 -3.127200	 -1.563600
 10.000000	  1.000000	 -3.127200	 -2.345400	 -0.781800
 11.000000	  1.000000	 -2.345400	 -3.127200	 -0.781800
 12.000000	  1.000000	 -2.345400	 -2.345400	 -1.563600
 13.000000	  1.000000	 -3.127200	 -3.127200	  0.000000
 14.000000	  1.000000	 -3.127200	 -2.345400	  0.781800
 15.000000	  1.000000	 -2.345400	 -3.127200	  0.781800
 16.000000	  1.000000	 -2.345400	 -2.345400	  0.000000
 17.000000	  1.000000	 -3.127200	 -3.127200	  1.563600
 18.000000	  1.000000	 -3.127200	 -2.345400	  2.345400
 19.000000	  1.000000	 -2.345400	 -3.127200	  2.345400
 20.000000	  1.000000	 -2.345400	 -2.345400	  1.563600
 21.000000	  1.000000	 -3.127200	 -1.563600	 -3.127200
 22.000000	  1.000000	 -3.127200	 -0.781800	 -2.345400
 23.000000	  1.000000	 -2.345400	 -1.563600	 -2.345400
 24.000000	  1.000000	 -2.345400	 -0.781800	 -3.127200
 25.000000	  1.000000	 -3.127200	 -1.563600	 -1.563600
 26.000000	  1.000000	 -3.127200	 -0.781800	 -0.781800
 27.000000	  1.000000	 -2.345400	 -1.563600	 -0.781800
 28.000000	  1.000000	 -2.345400	 -0.781800	 -1.563600
 29.000000	  1.000000	 -3.127200	 -1.563600	  0.000000
 30.000000	  1.000000	 -3.127200	 -0.781800	  0.781800
 31.000000	  1.000000	 -2.345400	 -1.563600	  0.781800
 32.000000	  1.000000	 -2.345400	 -0.781800	  0.000000
 33.000000	  1.000000	 -3.127200	 -1.563600	  1.563600
 34.000000	  1.000000	 -3.127200	 -0.781800	  2.345400
 35.000000	  1.000000	 -2.345400	 -1.563600	  2.345400
 36.000000	  1.000000	 -2.345400	 -0.781800	  1.563600
 37.000000	  1.000000	 -3.127200	  0.000000	 -3.127200
 38.000000	  1.000000	 -3.127200	  0.781800	 -2.345400
 39.000000	  1.000000	 -2.345400	  0.000000	 -2.345400
 40.000000	  1.000000	 -2.345400	  0.781800	 -3.127200
 41.000000	  1.000000	 -3.127200	  0.000000	 -1.563600
 42.000000	  1.000000	 -3.127200	  0.781800	 -0.781800
 43.000000	  1.000000	 -2.345400	  0.000000	 -0.781800
 44.000000	  1.000000	 -2.345400	  0.781800	 -1.563600
 45.000000	  1.000000	 -3.127200	  0.000000	  0.000000
 46.000000	  1.000000	 -3.127200	  0.781800	  0.781800
 47.000000	  1.000000	 -2.345400	  0.000000	  0.781800
 48.000000	  1.000000	 -2.345400	  0.781800	  0.000000
 49.000000	  1.000000	 -3.127200	  0.000000	  1.563600
 50.000000	  1.000000	 -3.127200	  0.781800	  2.345400
 51.000000	  1.000000	 -2.345400	  0.000000	  2.345400
 52.000000	  1.000000	 -2.345400	  0.781800	  1.563600
 53.000000	  1.000000	 -3.127200	  1.563600	 -3.127200
 54.000000	  1.000000	 -3.127200	  2.345400	 -2.345400
 55.000000	  1.000000	 -2.345400	  1.563600	 -2.345400
 56.000000	  1.000000	 -2.345400	  2.345400	 -3.127200
 57.000000	  1.000000	 -3.127200	  1.563600	 -1.563600
 58.000000	  1.000000	 -3.127200	  2.345400	 -0.781800
 59.000000	  1.000000	 -2.345400	  1.563600	 -0.781800
 60.000000	  1.000000	 -2.345400	  2.345400	 -1.563600
 61.000000	  1.000000	 -3.127200	  1.563600	  0.000000
 62.000000	  1.000000	 -3.127200	  2.345400	  0.781800
 63.000000	  1.000000	 -2.345400	  1.563600	  0.781800
 64.000000	  1.000000	 -2.345400	  2.345400	  0.000000
 65.000000	  1.000000	 -3.127200	  1.563600	  1.563600
 66.000000	  1.000000	 -3.127200	  2.345400	  2.345400
 67.000000	  1.000000	 -2.345400	  1.563600	  2.345400
 68.000000	  1.000000	 -2.345400	  2.345400	  1.563600
 69.000000	  1.000000	 -1.563600	 -3.127200	 -3.127200
 70.000000	  1.000000	 -1.563600	 -2.345400	 -2.345400
 71.000000	  1.000000	 -0.781800	 -3.127200	 -2.345400
 72.000000	  1.000000	 -0.781800	 -2.345400	 -3.127200
 73.000000	  1.000000	 -1.563600	 -3.127200	 -1.563600
 74.000000	  1.000000	 -1.563600	 -2.345400	 -0.781800
 75.000000	  1.000000	 -0.781800	 -3.127200	 -0.781800
 76.000000	  1.000000	 -0.781800	 -2.345400	 -1.563600
 77.000000	  1.000000	 -1.563600	 -3.127200	  0.000000
 78.000000	  1.000000	 -1.563600	 -2.345400	  0.781800
 79.000000	  1.000000	 -0.781800	 -3.127200	  0.781800
 80.000000	  1.000000	 -0.781800	 -2.345400	  0.000000
 81.000000	  1.000000	 -1.563600	 -3.127200	  1.563600
 82.000000	  1.000000	 -1.563600	 -2.345400	  2.345400
 83.000000	  1.000000	 -0.781800	 -3.127200	  2.345400
 84.000000	  1.000000	 -0.781800	 -2.345400	  1.563600
 85.000000	  1.000000	 -1.563600	 -1.563600	 -3.127200
 86.000000	  1.000000	 -1.563600	 -0.781800	 -2.345400
 87.000000	  1.000000	 -0.781800	 -1.563600	 -2.345400
 88.000000	  1.000000	 -0.781800	 -0.781800	 -3.127200
 89.000000	  1.000000	 -1.563600	 -1.563600	 -1.563600
 90.000000	  1.000000	 -1.563600	 -0.781800	 -0.781800
 91.000000	  1.000000	 -0.781800	 -1.563600	 -0.781800
 92.000000	  1.000000	 -0.781800	 -0.781800	 -1.563600
 93.000000	  1.000000	 -1.563600	 -1.563600	  0.000000
 94.000000	  1.000000	 -1.563600	 -0.781800	  0.781800
 95.000000	  1.000000	 -0.781800	 -1.563600	  0.781800
 96.000000	  1.000000	 -0.781800	 -0.781800	  0.000000
 97.000000	  1.000000	 -1.563600	 -1.563600	  1.563600
 98.000000	  1.000000	 -1.563600	 -0.781800	  2.345400
 99.000000	  1.000000	 -0.781800	 -1.563600	  2.345400
100.000000	  1.000000	 -0.781800	 -0.781800	  1.563600
101.000000	  1.000000	 -1.563600	  0.000000	 -3.127200
102.000000	  1.000000	 -1.563600	  0.781800	 -2.345400
103.000000	  1.000000	 -0.781800	  0.000000	 -2.345400
104.000000	  1.000000	 -0.781800	  0.781800	 -3.127200
105.000000	  1.000000	 -1.563600	  0.000000	 -1.563600
106.000000	  1.000000	 -1.563600	  0.781800	 -0.781800
107.000000	  1.000000	 -0.781800	  0.000000	 -0.781800
108.000000	  1.000000	 -0.781800	  0.781800	 -1.563600
109.000000	  1.000000	 -1.563600	  0.000000	  0.000000
110.000000	  1.000000	 -1.563600	  0.781800	  0.781800
111.000000	  1.000000	 -0.781800	  0.000000	  0.781800
112.000000	  1.000000	 -0.781800	  0.781800	  0.000000
113.000000	  1.000000	 -1.563600	  0.000000	  1.563600
114.000000	  1.000000	 -1.563600	  0.781800	  2.345400
115.000000	  1.000000	 -0.781800	  0.000000	  2.345400
116.000000	  1.000000	 -0.781800	  0.781800	  1.563600
117.000000	  1.000000	 -1.563600	  1.563600	 -3.127200
118.000000	  1.000000	 -1.563600	  2.345400	 -2.345400
119.000000	  1.000000	 -0.781800	  1.563600	 -2.345400
120.000000	  1.000000	 -0.781800	  2.345400	 -3.127200
121.000000	  1.000000	 -1.563600	  1.563600	 -1.563600
122.000000	  1.000000	 -1.563600	  2.345400	 -0.781800
123.000000	  1.000000	 -0.781800	  1.563600	 -0.781800
124.000000	  1.000000	 -0.781800	  2.345400	 -1.563600
125.000000	  1.000000	 -1.563600	  1.563600	  0.000000
126.000000	  1.000000	 -1.563600	  2.345400	  0.781800
127.000000	  1.000000	 -0.781800	  1.563600	  0.781800
128.000000	  1.000000	 -0.781800	  2.345400	  0.000000
129.000000	  1.000000	 -1.563600	  1.563600	  1.563600
130.000000	  1.000000	 -1.563600	  2.345400	  2.345400
131.000000	  1.000000	 -0.781800	  1.563600	  2.345400
132.000000	  1.000000	 -0.781800	  2.345400	  1.563600
133.000000	  1.000000	  0.000000	 -3.127200	 -3.127200
134.000000	  1.000000	  0.000000	 -2.345400	 -2.345400
135.000000	  1.000000	  0.781800	 -3.127200	 -2.345400
136.000000	  1.000000	  0.781800	 -2.345400	 -3.127200
137.000000	  1.000000	  0.000000	 -3.127200	 -1.563600
138.000000	  1.000000	  0.000000	 -2.345400	 -0.781800
139.000000	  1.000000	  0.781800	 -3.127200	 -0.781800
140.000000	  1.000000	  0.781800	 -2.345400	 -1.563600
141.000000	  1.000000	  0.000000	 -3.127200	  0.000000
142.000000	  1.000000	  0.000000	 -2.345400	  0.781800
143.000000	  1.000000	  0.781800	 -3.127200	  0.781800
144.000000	  1.000000	  0.781800	 -2.345400	  0.000000
145.000000	  1.000000	  0.000000	 -3.127200	  1.563600
146.000000	  1.000000	  0.000000	 -2.345400	  2.345400
147.000000	  1.000000	  0.781800	 -3.127200	  2.345400
148.000000	  1.000000	  0.781800	 -2.345400	  1.563600
149.000000	  1.000000	  0.000000	 -1.563600	 -3.127200
150.000000	  1.000000	  0.000000	 -0.781800	 -2.345400
151.000000	  1.000000	  0.781800	 -1.563600	 -2.345400
152.000000	  1.000000	  0.781800	 -0.781800	 -3.127200
153.000000	  1.000000	  0.000000	 -1.563600	 -1.563600
154.000000	  1.000000	  0.000000	 -0.781800	 -0.781800
155.000000	  1.000000	  0.781800	 -1.563600	 -0.781800
156.000000	  1.000000	  0.781800	 -0.781800	 -1.563600
157.000000	  1.000000	  0.000000	 -1.563600	  0.000000
158.000000	  1.000000	  0.000000	 -0.781800	  0.781800
159.000000	  1.000000	  0.781800	 -1.563600	  0.781800
160.000000	  1.000000	  0.781800	 -0.781800	  0.000000
161.000000	  1.000000	  0.000000	 -1.563600	  1.563600
162.000000	  1.000000	  0.000000	 -0.781800	  2.345400
163.000000	  1.000000	  0.781800	 -1.563600	  2.345400
164.000000	  1.000000	  0.781800	 -0.781800	  1.563600
165.000000	  1.000000	  0.000000	  0.000000	 -3.127200
166.000000	  1.000000	  0.000000	  0.781800	 -2.345400
167.000000	  1.000000	  0.781800	  0.000000	 -2.345400
168.000000	  1.000000	  0.781800	  0.781800	 -3.127200
169.000000	  1.000000	  0.000000	  0.000000	 -1.563600
170.000000	  1.000000	  0.000000	  0.781800	 -0.781800
171.000000	  1.000000	  0.781800	  0.000000	 -0.781800
172.000000	  1.000000	  0.781800	  0.781800	 -1.563600
173.000000	  1.000000	  0.000000	  0.000000	  1.563600
174.000000	  1.000000	  0.000000	  0.781800	  2.345400
175.000000	  1.000000	  0.781800	  0.000000	  2.345400
176.000000	  1.000000	  0.781800	  0.781800	  1.563600
177.000000	  1.000000	  0.000000	  1.563600	 -3.127200
178.000000	  1.000000	  0.000000	  2.345400	 -2.345400
179.000000	  1.000000	  0.781800	  1.563600	 -2.345400
180.000000	  1.000000	  0.781800	  2.345400	 -3.127200
181.000000	  1.000000	  0.000000	  1.563600	 -1.563600
182.000000	  1.000000	  0.000000	  2.345400	 -0.781800
183.000000	  1.000000	  0.781800	  1.563600	 -0.781800
184.000000	  1.000000	  0.781800	  2.345400	 -1.563600
185.000000	  1.000000	  0.000000	  1.563600	  0.000000
186.000000	  1.000000	  0.000000	  2.345400	  0.781800
187.000000	  1.000000	  0.781800	  1.563600	  0.781800
188.000000	  1.000000	  0.781800	  2.345400	  0.000000
189.000000	  1.000000	  0.000000	  1.563600	  1.563600
190.000000	  1.000000	  0.000000	  2.345400	  2.345400
191.000000	  1.000000	  0.781800	  1.563600	  2.345400
192.000000	  1.000000	  0.781800	  2.345400	  1.563600
193.000000	  1.000000	  1.563600	 -3.127200	 -3.127200
194.000000	  1.000000	  1.563600	 -2.345400	 -2.345400
195.000000	  1.000000	  2.345400	 -3.127200	 -2.345400
196.000000	  1.000000	  2.345400	 -2.345400	 -3.127200
197.000000	  1.000000	  1.563600	 -3.127200	 -1.563600
198.000000	  1.000000	  1.563600	 -2.345400	 -0.781800
199.000000	  1.000000	  2.345400	 -3.127200	 -0.781800
200.000000	  1.000000	  2.345400	 -2.345400	 -1.563600
201.000000	  1.000000	  1.563600	 -3.127200	  0.000000
202.000000	  1.000000	  1.563600	 -2.345400	  0.781800
203.000000	  1.000000	  2.345400	 -3.127200	  0.781800
204.000000	  1.000000	  2.345400	 -2.345400	  0.000000
205.000000	  1.000000	  1.563600	 -3.127200	  1.563600
206.000000	  1.000000	  1.563600	 -2.345400	  2.345400
207.000000	  1.000000	  2.345400	 -3.127200	  2.345400
208.000000	  1.000000	  2.345400	 -2.345400	  1.563600
209.000000	  1.000000	  1.563600	 -1.563600	 -3.127200
210.000000	  1.000000	  1.563600	 -0.781800	 -2.345400
211.000000	  1.000000	  2.345400	 -1.563600	 -2.345400
212.000000	  1.000000	  2.345400	 -0.781800	 -3.127200
213.000000	  1.000000	  1.563600	 -1.563600	 -1.563600
214.000000	  1.000000	  1.563600	 -0.781800	 -0.781800
215.000000	  1.000000	  2.345400	 -1.563600	 -0.781800
216.000000	  1.000000	  2.345400	 -0.781800	 -1.563600
217.000000	  1.000000	  1.563600	 -1.563600	  0.000000
218.000000	  1.000000	  1.563600	 -0.781800	  0.781800
219.000000	  1.000000	  2.345400	 -1.563600	  0.781800
220.000000	  1.000000	  2.345400	 -0.781800	  0.000000
221.000000	  1.000000	  1.563600	 -1.563600	  1.563600
222.000000	  1.000000	  1.563600	 -0.781800	  2.345400
223.000000	  1.000000	  2.345400	 -1.563600	  2.345400
224.000000	  1.000000	  2.345400	 -0.781800	  1.563600
225.000000	  1.000000	  1.563600	  0.000000	 -3.127200
226.000000	  1.000000	  1.563600	  0.781800	 -2.345400
227.000000	  1.000000	  2.345400	  0.000000	 -2.345400
228.000000	  1.000000	  2.345400	  0.781800	 -3.127200
229.000000	  1.000000	  1.563600	  0.000000	 -1.563600
230.000000	  1.000000	  1.563600	  0.781800	 -0.781800
231.000000	  1.000000	  2.345400	  0.000000	 -0.781800
232.000000	  1.000000	  2.345400	  0.781800	 -1.563600
233.000000	  1.000000	  1.563600	  0.000000	  0.000000
234.000000	  1.000000	  1.563600	  0.781800	  0.781800
235.000000	  1.000000	  2.345400	  0.000000	  0.781800
236.000000	  1.000000	  2.345400	  0.781800	  0.000000
237.000000	  1.000000	  1.563600	  0.000000	  1.563600
238.000000	  1.000000	  1.563600	  0.781800	  2.345400
239.000000	  1.000000	  2.345400	  0.000000	  2.345400
240.000000	  1.000000	  2.345400	  0.781800	  1.563600
241.000000	  1.000000	  1.563600	  1.563600	 -3.127200
242.000000	  1.000000	  1.563600	  2.345400	 -2.345400
243.000000	  1.000000	  2.345400	  1.563600	 -2.345400
244.000000	  1.000000	  2.345400	  2.345400	 -3.127200
245.000000	  1.000000	  1.563600	  1.563600	 -1.563600
246.000000	  1.000000	  1.563600	  2.345400	 -0.781800
247.000000	  1.000000	  2.345400	  1.563600	 -0.781800
248.000000	  1.000000	  2.345400	  2.345400	 -1.563600
249.000000	  1.000000	  1.563600	  1.563600	  0.000000
250.000000	  1.000000	  1.563600	  2.345400	  0.781800
251.000000	  1.000000	  2.345400	  1.563600	  0.781800
252.000000	  1.000000	  2.345400	  2.345400	  0.000000
253.000000	  1.000000	  1.563600	  1.563600	  1.563600
254.000000	  1.000000	  1.563600	  2.345400	  2.345400
255.000000	  1.000000	  2.345400	  1.563600	  2.345400
256.000000	  1.000000	  2.345400	  2.345400	  1.563600
