# Si primitive	

864 atoms
1 atom types	

0.0 9.36 xlo xhi
0.0 9.36 ylo yhi
0.0 9.36 zlo zhi

Masses

1 1.0

Atoms				

1.00000000	1.00000000	0.00000000	0.00000000	0.00000000
2.00000000	1.00000000	0.00000000	0.78000000	0.78000000
3.00000000	1.00000000	0.00000000	-0.78000000	-0.78000000
4.00000000	1.00000000	0.00000000	-0.78000000	0.78000000
5.00000000	1.00000000	0.00000000	0.78000000	-0.78000000
6.00000000	1.00000000	0.78000000	0.00000000	0.78000000
7.00000000	1.00000000	-0.78000000	0.00000000	-0.78000000
8.00000000	1.00000000	-0.78000000	0.00000000	0.78000000
9.00000000	1.00000000	0.78000000	0.00000000	-0.78000000
10.00000000	1.00000000	0.78000000	0.78000000	0.00010000
11.00000000	1.00000000	-0.78000000	-0.78000000	0.00000000
12.00000000	1.00000000	-0.78000000	0.78000000	0.00000000
13.00000000	1.00000000	0.78000000	-0.78000000	0.00000000
14.00000000	1.00000000	-1.56000000	0.00000000	0.00000000
15.00000000	1.00000000	0.00000000	-1.56000000	0.00000000
16.00000000	1.00000000	0.00000000	0.00000000	-1.56000000
17.00000000	1.00000000	0.00000000	0.00000000	1.56000000
18.00000000	1.00000000	0.00000000	1.56000000	0.00000000
19.00000000	1.00000000	1.56000000	0.00000000	0.00000000
20.00000000	1.00000000	-1.56000000	-0.78000000	-0.78000000
21.00000000	1.00000000	-1.56000000	-0.78000000	0.78000000
22.00000000	1.00000000	-1.56000000	0.78000000	-0.78000000
23.00000000	1.00000000	-1.56000000	0.78000000	0.78000000
24.00000000	1.00000000	1.56000000	-0.78000000	-0.78000000
25.00000000	1.00000000	1.56000000	-0.78000000	0.78000000
26.00000000	1.00000000	1.56000000	0.78000000	-0.78000000
27.00000000	1.00000000	1.56000000	0.78000000	0.78000000
28.00000000	1.00000000	-0.78000000	-1.56000000	-0.78000000
29.00000000	1.00000000	-0.78000000	-1.56000000	0.78000000
30.00000000	1.00000000	-0.78000000	1.56000000	-0.78000000
31.00000000	1.00000000	-0.78000000	1.56000000	0.78000000
32.00000000	1.00000000	0.78000000	-1.56000000	-0.78000000
33.00000000	1.00000000	0.78000000	-1.56000000	0.78000000
34.00000000	1.00000000	0.78000000	1.56000000	-0.78000000
35.00000000	1.00000000	0.78000000	1.56000000	0.78000000
36.00000000	1.00000000	-0.78000000	-0.78000000	-1.56000000
37.00000000	1.00000000	-0.78000000	-0.78000000	1.56000000
38.00000000	1.00000000	-0.78000000	0.78000000	-1.56000000
39.00000000	1.00000000	-0.78000000	0.78000000	1.56000000
40.00000000	1.00000000	0.78000000	-0.78000000	-1.56000000
41.00000000	1.00000000	0.78000000	-0.78000000	1.56000000
42.00000000	1.00000000	0.78000000	0.78000000	-1.56000000
43.00000000	1.00000000	0.78000000	0.78000000	1.56000000
44.00000000	1.00000000	-1.56000000	-1.56000000	0.00000000
45.00000000	1.00000000	-1.56000000	0.00000000	-1.56000000
46.00000000	1.00000000	-1.56000000	0.00000000	1.56000000
47.00000000	1.00000000	-1.56000000	1.56000000	0.00000000
48.00000000	1.00000000	0.00000000	-1.56000000	-1.56000000
49.00000000	1.00000000	0.00000000	-1.56000000	1.56000000
50.00000000	1.00000000	0.00000000	1.56000000	-1.56000000
51.00000000	1.00000000	0.00000000	1.56000000	1.56000000
52.00000000	1.00000000	1.56000000	-1.56000000	0.00000000
53.00000000	1.00000000	1.56000000	0.00000000	-1.56000000
54.00000000	1.00000000	1.56000000	0.00000000	1.56000000
55.00000000	1.00000000	1.56000000	1.56000000	0.00000000
56.00000000	1.00000000	0.00000000	-2.34000000	-0.78000000
57.00000000	1.00000000	0.00000000	-2.34000000	0.78000000
58.00000000	1.00000000	0.00000000	-0.78000000	-2.34000000
59.00000000	1.00000000	0.00000000	-0.78000000	2.34000000
60.00000000	1.00000000	0.00000000	0.78000000	-2.34000000
61.00000000	1.00000000	0.00000000	0.78000000	2.34000000
62.00000000	1.00000000	0.00000000	2.34000000	-0.78000000
63.00000000	1.00000000	0.00000000	2.34000000	0.78000000
64.00000000	1.00000000	-2.34000000	0.00000000	-0.78000000
65.00000000	1.00000000	-2.34000000	0.00000000	0.78000000
66.00000000	1.00000000	-0.78000000	0.00000000	-2.34000000
67.00000000	1.00000000	-0.78000000	0.00000000	2.34000000
68.00000000	1.00000000	0.78000000	0.00000000	-2.34000000
69.00000000	1.00000000	0.78000000	0.00000000	2.34000000
70.00000000	1.00000000	2.34000000	0.00000000	-0.78000000
71.00000000	1.00000000	2.34000000	0.00000000	0.78000000
72.00000000	1.00000000	-2.34000000	-0.78000000	0.00000000
73.00000000	1.00000000	-2.34000000	0.78000000	0.00000000
74.00000000	1.00000000	-0.78000000	-2.34000000	0.00000000
75.00000000	1.00000000	-0.78000000	2.34000000	0.00000000
76.00000000	1.00000000	0.78000000	-2.34000000	0.00000000
77.00000000	1.00000000	0.78000000	2.34000000	0.00000000
78.00000000	1.00000000	2.34000000	-0.78000000	0.00000000
79.00000000	1.00000000	2.34000000	0.78000000	0.00000000
80.00000000	1.00000000	-1.56000000	-1.56000000	-1.56000000
81.00000000	1.00000000	-1.56000000	-1.56000000	1.56000000
82.00000000	1.00000000	-1.56000000	1.56000000	-1.56000000
83.00000000	1.00000000	-1.56000000	1.56000000	1.56000000
84.00000000	1.00000000	1.56000000	-1.56000000	-1.56000000
85.00000000	1.00000000	1.56000000	-1.56000000	1.56000000
86.00000000	1.00000000	1.56000000	1.56000000	-1.56000000
87.00000000	1.00000000	1.56000000	1.56000000	1.56000000
88.00000000	1.00000000	-1.56000000	-2.34000000	-0.78000000
89.00000000	1.00000000	-1.56000000	-2.34000000	0.78000000
90.00000000	1.00000000	-1.56000000	-0.78000000	-2.34000000
91.00000000	1.00000000	-1.56000000	-0.78000000	2.34000000
92.00000000	1.00000000	-1.56000000	0.78000000	-2.34000000
93.00000000	1.00000000	-1.56000000	0.78000000	2.34000000
94.00000000	1.00000000	-1.56000000	2.34000000	-0.78000000
95.00000000	1.00000000	-1.56000000	2.34000000	0.78000000
96.00000000	1.00000000	1.56000000	-2.34000000	-0.78000000
97.00000000	1.00000000	1.56000000	-2.34000000	0.78000000
98.00000000	1.00000000	1.56000000	-0.78000000	-2.34000000
99.00000000	1.00000000	1.56000000	-0.78000000	2.34000000
100.00000000	1.00000000	1.56000000	0.78000000	-2.34000000
101.00000000	1.00000000	1.56000000	0.78000000	2.34000000
102.00000000	1.00000000	1.56000000	2.34000000	-0.78000000
103.00000000	1.00000000	1.56000000	2.34000000	0.78000000
104.00000000	1.00000000	-2.34000000	-1.56000000	-0.78000000
105.00000000	1.00000000	-2.34000000	-1.56000000	0.78000000
106.00000000	1.00000000	-2.34000000	1.56000000	-0.78000000
107.00000000	1.00000000	-2.34000000	1.56000000	0.78000000
108.00000000	1.00000000	-0.78000000	-1.56000000	-2.34000000
109.00000000	1.00000000	-0.78000000	-1.56000000	2.34000000
110.00000000	1.00000000	-0.78000000	1.56000000	-2.34000000
111.00000000	1.00000000	-0.78000000	1.56000000	2.34000000
112.00000000	1.00000000	0.78000000	-1.56000000	-2.34000000
113.00000000	1.00000000	0.78000000	-1.56000000	2.34000000
114.00000000	1.00000000	0.78000000	1.56000000	-2.34000000
115.00000000	1.00000000	0.78000000	1.56000000	2.34000000
116.00000000	1.00000000	2.34000000	-1.56000000	-0.78000000
117.00000000	1.00000000	2.34000000	-1.56000000	0.78000000
118.00000000	1.00000000	2.34000000	1.56000000	-0.78000000
119.00000000	1.00000000	2.34000000	1.56000000	0.78000000
120.00000000	1.00000000	-2.34000000	-0.78000000	-1.56000000
121.00000000	1.00000000	-2.34000000	-0.78000000	1.56000000
122.00000000	1.00000000	-2.34000000	0.78000000	-1.56000000
123.00000000	1.00000000	-2.34000000	0.78000000	1.56000000
124.00000000	1.00000000	-0.78000000	-2.34000000	-1.56000000
125.00000000	1.00000000	-0.78000000	-2.34000000	1.56000000
126.00000000	1.00000000	-0.78000000	2.34000000	-1.56000000
127.00000000	1.00000000	-0.78000000	2.34000000	1.56000000
128.00000000	1.00000000	0.78000000	-2.34000000	-1.56000000
129.00000000	1.00000000	0.78000000	-2.34000000	1.56000000
130.00000000	1.00000000	0.78000000	2.34000000	-1.56000000
131.00000000	1.00000000	0.78000000	2.34000000	1.56000000
132.00000000	1.00000000	2.34000000	-0.78000000	-1.56000000
133.00000000	1.00000000	2.34000000	-0.78000000	1.56000000
134.00000000	1.00000000	2.34000000	0.78000000	-1.56000000
135.00000000	1.00000000	2.34000000	0.78000000	1.56000000
136.00000000	1.00000000	-3.12000000	0.00000000	0.00000000
137.00000000	1.00000000	0.00000000	-3.12000000	0.00000000
138.00000000	1.00000000	0.00000000	0.00000000	-3.12000000
139.00000000	1.00000000	0.00000000	0.00000000	3.12000000
140.00000000	1.00000000	0.00000000	3.12000000	0.00000000
141.00000000	1.00000000	3.12000000	0.00000000	0.00000000
142.00000000	1.00000000	-3.12000000	-0.78000000	-0.78000000
143.00000000	1.00000000	-3.12000000	-0.78000000	0.78000000
144.00000000	1.00000000	-3.12000000	0.78000000	-0.78000000
145.00000000	1.00000000	-3.12000000	0.78000000	0.78000000
146.00000000	1.00000000	0.00000000	-2.34000000	-2.34000000
147.00000000	1.00000000	0.00000000	-2.34000000	2.34000000
148.00000000	1.00000000	0.00000000	2.34000000	-2.34000000
149.00000000	1.00000000	0.00000000	2.34000000	2.34000000
150.00000000	1.00000000	3.12000000	-0.78000000	-0.78000000
151.00000000	1.00000000	3.12000000	-0.78000000	0.78000000
152.00000000	1.00000000	3.12000000	0.78000000	-0.78000000
153.00000000	1.00000000	3.12000000	0.78000000	0.78000000
154.00000000	1.00000000	-2.34000000	0.00000000	-2.34000000
155.00000000	1.00000000	-2.34000000	0.00000000	2.34000000
156.00000000	1.00000000	-0.78000000	-3.12000000	-0.78000000
157.00000000	1.00000000	-0.78000000	-3.12000000	0.78000000
158.00000000	1.00000000	-0.78000000	3.12000000	-0.78000000
159.00000000	1.00000000	-0.78000000	3.12000000	0.78000000
160.00000000	1.00000000	0.78000000	-3.12000000	-0.78000000
161.00000000	1.00000000	0.78000000	-3.12000000	0.78000000
162.00000000	1.00000000	0.78000000	3.12000000	-0.78000000
163.00000000	1.00000000	0.78000000	3.12000000	0.78000000
164.00000000	1.00000000	2.34000000	0.00000000	-2.34000000
165.00000000	1.00000000	2.34000000	0.00000000	2.34000000
166.00000000	1.00000000	-2.34000000	-2.34000000	0.00000000
167.00000000	1.00000000	-2.34000000	2.34000000	0.00000000
168.00000000	1.00000000	-0.78000000	-0.78000000	-3.12000000
169.00000000	1.00000000	-0.78000000	-0.78000000	3.12000000
170.00000000	1.00000000	-0.78000000	0.78000000	-3.12000000
171.00000000	1.00000000	-0.78000000	0.78000000	3.12000000
172.00000000	1.00000000	0.78000000	-0.78000000	-3.12000000
173.00000000	1.00000000	0.78000000	-0.78000000	3.12000000
174.00000000	1.00000000	0.78000000	0.78000000	-3.12000000
175.00000000	1.00000000	0.78000000	0.78000000	3.12000000
176.00000000	1.00000000	2.34000000	-2.34000000	0.00000000
177.00000000	1.00000000	2.34000000	2.34000000	0.00000000
178.00000000	1.00000000	-3.12000000	-1.56000000	0.00000000
179.00000000	1.00000000	-3.12000000	0.00000000	-1.56000000
180.00000000	1.00000000	-3.12000000	0.00000000	1.56000000
181.00000000	1.00000000	-3.12000000	1.56000000	0.00000000
182.00000000	1.00000000	-1.56000000	-3.12000000	0.00000000
183.00000000	1.00000000	-1.56000000	0.00000000	-3.12000000
184.00000000	1.00000000	-1.56000000	0.00000000	3.12000000
185.00000000	1.00000000	-1.56000000	3.12000000	0.00000000
186.00000000	1.00000000	0.00000000	-3.12000000	-1.56000000
187.00000000	1.00000000	0.00000000	-3.12000000	1.56000000
188.00000000	1.00000000	0.00000000	-1.56000000	-3.12000000
189.00000000	1.00000000	0.00000000	-1.56000000	3.12000000
190.00000000	1.00000000	0.00000000	1.56000000	-3.12000000
191.00000000	1.00000000	0.00000000	1.56000000	3.12000000
192.00000000	1.00000000	0.00000000	3.12000000	-1.56000000
193.00000000	1.00000000	0.00000000	3.12000000	1.56000000
194.00000000	1.00000000	1.56000000	-3.12000000	0.00000000
195.00000000	1.00000000	1.56000000	0.00000000	-3.12000000
196.00000000	1.00000000	1.56000000	0.00000000	3.12000000
197.00000000	1.00000000	1.56000000	3.12000000	0.00000000
198.00000000	1.00000000	3.12000000	-1.56000000	0.00000000
199.00000000	1.00000000	3.12000000	0.00000000	-1.56000000
200.00000000	1.00000000	3.12000000	0.00000000	1.56000000
201.00000000	1.00000000	3.12000000	1.56000000	0.00000000
202.00000000	1.00000000	-1.56000000	-2.34000000	-2.34000000
203.00000000	1.00000000	-1.56000000	-2.34000000	2.34000000
204.00000000	1.00000000	-1.56000000	2.34000000	-2.34000000
205.00000000	1.00000000	-1.56000000	2.34000000	2.34000000
206.00000000	1.00000000	1.56000000	-2.34000000	-2.34000000
207.00000000	1.00000000	1.56000000	-2.34000000	2.34000000
208.00000000	1.00000000	1.56000000	2.34000000	-2.34000000
209.00000000	1.00000000	1.56000000	2.34000000	2.34000000
210.00000000	1.00000000	-2.34000000	-1.56000000	-2.34000000
211.00000000	1.00000000	-2.34000000	-1.56000000	2.34000000
212.00000000	1.00000000	-2.34000000	1.56000000	-2.34000000
213.00000000	1.00000000	-2.34000000	1.56000000	2.34000000
214.00000000	1.00000000	2.34000000	-1.56000000	-2.34000000
215.00000000	1.00000000	2.34000000	-1.56000000	2.34000000
216.00000000	1.00000000	2.34000000	1.56000000	-2.34000000
217.00000000	1.00000000	2.34000000	1.56000000	2.34000000
218.00000000	1.00000000	-2.34000000	-2.34000000	-1.56000000
219.00000000	1.00000000	-2.34000000	-2.34000000	1.56000000
220.00000000	1.00000000	-2.34000000	2.34000000	-1.56000000
221.00000000	1.00000000	-2.34000000	2.34000000	1.56000000
222.00000000	1.00000000	2.34000000	-2.34000000	-1.56000000
223.00000000	1.00000000	2.34000000	-2.34000000	1.56000000
224.00000000	1.00000000	2.34000000	2.34000000	-1.56000000
225.00000000	1.00000000	2.34000000	2.34000000	1.56000000
226.00000000	1.00000000	-3.12000000	-1.56000000	-1.56000000
227.00000000	1.00000000	-3.12000000	-1.56000000	1.56000000
228.00000000	1.00000000	-3.12000000	1.56000000	-1.56000000
229.00000000	1.00000000	-3.12000000	1.56000000	1.56000000
230.00000000	1.00000000	-1.56000000	-3.12000000	-1.56000000
231.00000000	1.00000000	-1.56000000	-3.12000000	1.56000000
232.00000000	1.00000000	-1.56000000	-1.56000000	-3.12000000
233.00000000	1.00000000	-1.56000000	-1.56000000	3.12000000
234.00000000	1.00000000	-1.56000000	1.56000000	-3.12000000
235.00000000	1.00000000	-1.56000000	1.56000000	3.12000000
236.00000000	1.00000000	-1.56000000	3.12000000	-1.56000000
237.00000000	1.00000000	-1.56000000	3.12000000	1.56000000
238.00000000	1.00000000	1.56000000	-3.12000000	-1.56000000
239.00000000	1.00000000	1.56000000	-3.12000000	1.56000000
240.00000000	1.00000000	1.56000000	-1.56000000	-3.12000000
241.00000000	1.00000000	1.56000000	-1.56000000	3.12000000
242.00000000	1.00000000	1.56000000	1.56000000	-3.12000000
243.00000000	1.00000000	1.56000000	1.56000000	3.12000000
244.00000000	1.00000000	1.56000000	3.12000000	-1.56000000
245.00000000	1.00000000	1.56000000	3.12000000	1.56000000
246.00000000	1.00000000	3.12000000	-1.56000000	-1.56000000
247.00000000	1.00000000	3.12000000	-1.56000000	1.56000000
248.00000000	1.00000000	3.12000000	1.56000000	-1.56000000
249.00000000	1.00000000	3.12000000	1.56000000	1.56000000
250.00000000	1.00000000	-3.12000000	-2.34000000	-0.78000000
251.00000000	1.00000000	-3.12000000	-2.34000000	0.78000000
252.00000000	1.00000000	-3.12000000	-0.78000000	-2.34000000
253.00000000	1.00000000	-3.12000000	-0.78000000	2.34000000
254.00000000	1.00000000	-3.12000000	0.78000000	-2.34000000
255.00000000	1.00000000	-3.12000000	0.78000000	2.34000000
256.00000000	1.00000000	-3.12000000	2.34000000	-0.78000000
257.00000000	1.00000000	-3.12000000	2.34000000	0.78000000
258.00000000	1.00000000	0.00000000	-3.90000000	-0.78000000
259.00000000	1.00000000	0.00000000	-3.90000000	0.78000000
260.00000000	1.00000000	0.00000000	-0.78000000	-3.90000000
261.00000000	1.00000000	0.00000000	-0.78000000	3.90000000
262.00000000	1.00000000	0.00000000	0.78000000	-3.90000000
263.00000000	1.00000000	0.00000000	0.78000000	3.90000000
264.00000000	1.00000000	0.00000000	3.90000000	-0.78000000
265.00000000	1.00000000	0.00000000	3.90000000	0.78000000
266.00000000	1.00000000	3.12000000	-2.34000000	-0.78000000
267.00000000	1.00000000	3.12000000	-2.34000000	0.78000000
268.00000000	1.00000000	3.12000000	-0.78000000	-2.34000000
269.00000000	1.00000000	3.12000000	-0.78000000	2.34000000
270.00000000	1.00000000	3.12000000	0.78000000	-2.34000000
271.00000000	1.00000000	3.12000000	0.78000000	2.34000000
272.00000000	1.00000000	3.12000000	2.34000000	-0.78000000
273.00000000	1.00000000	3.12000000	2.34000000	0.78000000
274.00000000	1.00000000	-3.90000000	0.00000000	-0.78000000
275.00000000	1.00000000	-3.90000000	0.00000000	0.78000000
276.00000000	1.00000000	-2.34000000	-3.12000000	-0.78000000
277.00000000	1.00000000	-2.34000000	-3.12000000	0.78000000
278.00000000	1.00000000	-2.34000000	3.12000000	-0.78000000
279.00000000	1.00000000	-2.34000000	3.12000000	0.78000000
280.00000000	1.00000000	-0.78000000	-3.12000000	-2.34000000
281.00000000	1.00000000	-0.78000000	-3.12000000	2.34000000
282.00000000	1.00000000	-0.78000000	0.00000000	-3.90000000
283.00000000	1.00000000	-0.78000000	0.00000000	3.90000000
284.00000000	1.00000000	-0.78000000	3.12000000	-2.34000000
285.00000000	1.00000000	-0.78000000	3.12000000	2.34000000
286.00000000	1.00000000	0.78000000	-3.12000000	-2.34000000
287.00000000	1.00000000	0.78000000	-3.12000000	2.34000000
288.00000000	1.00000000	0.78000000	0.00000000	-3.90000000
289.00000000	1.00000000	0.78000000	0.00000000	3.90000000
290.00000000	1.00000000	0.78000000	3.12000000	-2.34000000
291.00000000	1.00000000	0.78000000	3.12000000	2.34000000
292.00000000	1.00000000	2.34000000	-3.12000000	-0.78000000
293.00000000	1.00000000	2.34000000	-3.12000000	0.78000000
294.00000000	1.00000000	2.34000000	3.12000000	-0.78000000
295.00000000	1.00000000	2.34000000	3.12000000	0.78000000
296.00000000	1.00000000	3.90000000	0.00000000	-0.78000000
297.00000000	1.00000000	3.90000000	0.00000000	0.78000000
298.00000000	1.00000000	-3.90000000	-0.78000000	0.00000000
299.00000000	1.00000000	-3.90000000	0.78000000	0.00000000
300.00000000	1.00000000	-2.34000000	-0.78000000	-3.12000000
301.00000000	1.00000000	-2.34000000	-0.78000000	3.12000000
302.00000000	1.00000000	-2.34000000	0.78000000	-3.12000000
303.00000000	1.00000000	-2.34000000	0.78000000	3.12000000
304.00000000	1.00000000	-0.78000000	-3.90000000	0.00000000
305.00000000	1.00000000	-0.78000000	-2.34000000	-3.12000000
306.00000000	1.00000000	-0.78000000	-2.34000000	3.12000000
307.00000000	1.00000000	-0.78000000	2.34000000	-3.12000000
308.00000000	1.00000000	-0.78000000	2.34000000	3.12000000
309.00000000	1.00000000	-0.78000000	3.90000000	0.00000000
310.00000000	1.00000000	0.78000000	-3.90000000	0.00000000
311.00000000	1.00000000	0.78000000	-2.34000000	-3.12000000
312.00000000	1.00000000	0.78000000	-2.34000000	3.12000000
313.00000000	1.00000000	0.78000000	2.34000000	-3.12000000
314.00000000	1.00000000	0.78000000	2.34000000	3.12000000
315.00000000	1.00000000	0.78000000	3.90000000	0.00000000
316.00000000	1.00000000	2.34000000	-0.78000000	-3.12000000
317.00000000	1.00000000	2.34000000	-0.78000000	3.12000000
318.00000000	1.00000000	2.34000000	0.78000000	-3.12000000
319.00000000	1.00000000	2.34000000	0.78000000	3.12000000
320.00000000	1.00000000	3.90000000	-0.78000000	0.00000000
321.00000000	1.00000000	3.90000000	0.78000000	0.00000000
322.00000000	1.00000000	-1.56000000	-3.90000000	-0.78000000
323.00000000	1.00000000	-1.56000000	-3.90000000	0.78000000
324.00000000	1.00000000	-1.56000000	-0.78000000	-3.90000000
325.00000000	1.00000000	-1.56000000	-0.78000000	3.90000000
326.00000000	1.00000000	-1.56000000	0.78000000	-3.90000000
327.00000000	1.00000000	-1.56000000	0.78000000	3.90000000
328.00000000	1.00000000	-1.56000000	3.90000000	-0.78000000
329.00000000	1.00000000	-1.56000000	3.90000000	0.78000000
330.00000000	1.00000000	1.56000000	-3.90000000	-0.78000000
331.00000000	1.00000000	1.56000000	-3.90000000	0.78000000
332.00000000	1.00000000	1.56000000	-0.78000000	-3.90000000
333.00000000	1.00000000	1.56000000	-0.78000000	3.90000000
334.00000000	1.00000000	1.56000000	0.78000000	-3.90000000
335.00000000	1.00000000	1.56000000	0.78000000	3.90000000
336.00000000	1.00000000	1.56000000	3.90000000	-0.78000000
337.00000000	1.00000000	1.56000000	3.90000000	0.78000000
338.00000000	1.00000000	-3.90000000	-1.56000000	-0.78000000
339.00000000	1.00000000	-3.90000000	-1.56000000	0.78000000
340.00000000	1.00000000	-3.90000000	1.56000000	-0.78000000
341.00000000	1.00000000	-3.90000000	1.56000000	0.78000000
342.00000000	1.00000000	-0.78000000	-1.56000000	-3.90000000
343.00000000	1.00000000	-0.78000000	-1.56000000	3.90000000
344.00000000	1.00000000	-0.78000000	1.56000000	-3.90000000
345.00000000	1.00000000	-0.78000000	1.56000000	3.90000000
346.00000000	1.00000000	0.78000000	-1.56000000	-3.90000000
347.00000000	1.00000000	0.78000000	-1.56000000	3.90000000
348.00000000	1.00000000	0.78000000	1.56000000	-3.90000000
349.00000000	1.00000000	0.78000000	1.56000000	3.90000000
350.00000000	1.00000000	3.90000000	-1.56000000	-0.78000000
351.00000000	1.00000000	3.90000000	-1.56000000	0.78000000
352.00000000	1.00000000	3.90000000	1.56000000	-0.78000000
353.00000000	1.00000000	3.90000000	1.56000000	0.78000000
354.00000000	1.00000000	-3.90000000	-0.78000000	-1.56000000
355.00000000	1.00000000	-3.90000000	-0.78000000	1.56000000
356.00000000	1.00000000	-3.90000000	0.78000000	-1.56000000
357.00000000	1.00000000	-3.90000000	0.78000000	1.56000000
358.00000000	1.00000000	-0.78000000	-3.90000000	-1.56000000
359.00000000	1.00000000	-0.78000000	-3.90000000	1.56000000
360.00000000	1.00000000	-0.78000000	3.90000000	-1.56000000
361.00000000	1.00000000	-0.78000000	3.90000000	1.56000000
362.00000000	1.00000000	0.78000000	-3.90000000	-1.56000000
363.00000000	1.00000000	0.78000000	-3.90000000	1.56000000
364.00000000	1.00000000	0.78000000	3.90000000	-1.56000000
365.00000000	1.00000000	0.78000000	3.90000000	1.56000000
366.00000000	1.00000000	3.90000000	-0.78000000	-1.56000000
367.00000000	1.00000000	3.90000000	-0.78000000	1.56000000
368.00000000	1.00000000	3.90000000	0.78000000	-1.56000000
369.00000000	1.00000000	3.90000000	0.78000000	1.56000000
370.00000000	1.00000000	-3.12000000	-3.12000000	0.00000000
371.00000000	1.00000000	-3.12000000	0.00000000	-3.12000000
372.00000000	1.00000000	-3.12000000	0.00000000	3.12000000
373.00000000	1.00000000	-3.12000000	3.12000000	0.00000000
374.00000000	1.00000000	0.00000000	-3.12000000	-3.12000000
375.00000000	1.00000000	0.00000000	-3.12000000	3.12000000
376.00000000	1.00000000	0.00000000	3.12000000	-3.12000000
377.00000000	1.00000000	0.00000000	3.12000000	3.12000000
378.00000000	1.00000000	3.12000000	-3.12000000	0.00000000
379.00000000	1.00000000	3.12000000	0.00000000	-3.12000000
380.00000000	1.00000000	3.12000000	0.00000000	3.12000000
381.00000000	1.00000000	3.12000000	3.12000000	0.00000000
382.00000000	1.00000000	-3.12000000	-2.34000000	-2.34000000
383.00000000	1.00000000	-3.12000000	-2.34000000	2.34000000
384.00000000	1.00000000	-3.12000000	2.34000000	-2.34000000
385.00000000	1.00000000	-3.12000000	2.34000000	2.34000000
386.00000000	1.00000000	0.00000000	-3.90000000	-2.34000000
387.00000000	1.00000000	0.00000000	-3.90000000	2.34000000
388.00000000	1.00000000	0.00000000	-2.34000000	-3.90000000
389.00000000	1.00000000	0.00000000	-2.34000000	3.90000000
390.00000000	1.00000000	0.00000000	2.34000000	-3.90000000
391.00000000	1.00000000	0.00000000	2.34000000	3.90000000
392.00000000	1.00000000	0.00000000	3.90000000	-2.34000000
393.00000000	1.00000000	0.00000000	3.90000000	2.34000000
394.00000000	1.00000000	3.12000000	-2.34000000	-2.34000000
395.00000000	1.00000000	3.12000000	-2.34000000	2.34000000
396.00000000	1.00000000	3.12000000	2.34000000	-2.34000000
397.00000000	1.00000000	3.12000000	2.34000000	2.34000000
398.00000000	1.00000000	-3.90000000	0.00000000	-2.34000000
399.00000000	1.00000000	-3.90000000	0.00000000	2.34000000
400.00000000	1.00000000	-2.34000000	-3.12000000	-2.34000000
401.00000000	1.00000000	-2.34000000	-3.12000000	2.34000000
402.00000000	1.00000000	-2.34000000	0.00000000	-3.90000000
403.00000000	1.00000000	-2.34000000	0.00000000	3.90000000
404.00000000	1.00000000	-2.34000000	3.12000000	-2.34000000
405.00000000	1.00000000	-2.34000000	3.12000000	2.34000000
406.00000000	1.00000000	2.34000000	-3.12000000	-2.34000000
407.00000000	1.00000000	2.34000000	-3.12000000	2.34000000
408.00000000	1.00000000	2.34000000	0.00000000	-3.90000000
409.00000000	1.00000000	2.34000000	0.00000000	3.90000000
410.00000000	1.00000000	2.34000000	3.12000000	-2.34000000
411.00000000	1.00000000	2.34000000	3.12000000	2.34000000
412.00000000	1.00000000	3.90000000	0.00000000	-2.34000000
413.00000000	1.00000000	3.90000000	0.00000000	2.34000000
414.00000000	1.00000000	-3.90000000	-2.34000000	0.00000000
415.00000000	1.00000000	-3.90000000	2.34000000	0.00000000
416.00000000	1.00000000	-2.34000000	-3.90000000	0.00000000
417.00000000	1.00000000	-2.34000000	-2.34000000	-3.12000000
418.00000000	1.00000000	-2.34000000	-2.34000000	3.12000000
419.00000000	1.00000000	-2.34000000	2.34000000	-3.12000000
420.00000000	1.00000000	-2.34000000	2.34000000	3.12000000
421.00000000	1.00000000	-2.34000000	3.90000000	0.00000000
422.00000000	1.00000000	2.34000000	-3.90000000	0.00000000
423.00000000	1.00000000	2.34000000	-2.34000000	-3.12000000
424.00000000	1.00000000	2.34000000	-2.34000000	3.12000000
425.00000000	1.00000000	2.34000000	2.34000000	-3.12000000
426.00000000	1.00000000	2.34000000	2.34000000	3.12000000
427.00000000	1.00000000	2.34000000	3.90000000	0.00000000
428.00000000	1.00000000	3.90000000	-2.34000000	0.00000000
429.00000000	1.00000000	3.90000000	2.34000000	0.00000000
430.00000000	1.00000000	-4.68000000	0.00000000	0.00000000
431.00000000	1.00000000	-3.12000000	-3.12000000	-1.56000000
432.00000000	1.00000000	-3.12000000	-3.12000000	1.56000000
433.00000000	1.00000000	-3.12000000	-1.56000000	-3.12000000
434.00000000	1.00000000	-3.12000000	-1.56000000	3.12000000
435.00000000	1.00000000	-3.12000000	1.56000000	-3.12000000
436.00000000	1.00000000	-3.12000000	1.56000000	3.12000000
437.00000000	1.00000000	-3.12000000	3.12000000	-1.56000000
438.00000000	1.00000000	-3.12000000	3.12000000	1.56000000
439.00000000	1.00000000	-1.56000000	-3.12000000	-3.12000000
440.00000000	1.00000000	-1.56000000	-3.12000000	3.12000000
441.00000000	1.00000000	-1.56000000	3.12000000	-3.12000000
442.00000000	1.00000000	-1.56000000	3.12000000	3.12000000
443.00000000	1.00000000	0.00000000	-4.68000000	0.00000000
444.00000000	1.00000000	0.00000000	0.00000000	-4.68000000
445.00000000	1.00000000	1.56000000	-3.12000000	-3.12000000
446.00000000	1.00000000	1.56000000	-3.12000000	3.12000000
447.00000000	1.00000000	1.56000000	3.12000000	-3.12000000
448.00000000	1.00000000	1.56000000	3.12000000	3.12000000
449.00000000	1.00000000	3.12000000	-3.12000000	-1.56000000
450.00000000	1.00000000	3.12000000	-3.12000000	1.56000000
451.00000000	1.00000000	3.12000000	-1.56000000	-3.12000000
452.00000000	1.00000000	3.12000000	-1.56000000	3.12000000
453.00000000	1.00000000	3.12000000	1.56000000	-3.12000000
454.00000000	1.00000000	3.12000000	1.56000000	3.12000000
455.00000000	1.00000000	3.12000000	3.12000000	-1.56000000
456.00000000	1.00000000	3.12000000	3.12000000	1.56000000
457.00000000	1.00000000	-4.68000000	-0.78000000	-0.78000000
458.00000000	1.00000000	-4.68000000	-0.78000000	0.78000000
459.00000000	1.00000000	-4.68000000	0.78000000	-0.78000000
460.00000000	1.00000000	-4.68000000	0.78000000	0.78000000
461.00000000	1.00000000	-1.56000000	-3.90000000	-2.34000000
462.00000000	1.00000000	-1.56000000	-3.90000000	2.34000000
463.00000000	1.00000000	-1.56000000	-2.34000000	-3.90000000
464.00000000	1.00000000	-1.56000000	-2.34000000	3.90000000
465.00000000	1.00000000	-1.56000000	2.34000000	-3.90000000
466.00000000	1.00000000	-1.56000000	2.34000000	3.90000000
467.00000000	1.00000000	-1.56000000	3.90000000	-2.34000000
468.00000000	1.00000000	-1.56000000	3.90000000	2.34000000
469.00000000	1.00000000	1.56000000	-3.90000000	-2.34000000
470.00000000	1.00000000	1.56000000	-3.90000000	2.34000000
471.00000000	1.00000000	1.56000000	-2.34000000	-3.90000000
472.00000000	1.00000000	1.56000000	-2.34000000	3.90000000
473.00000000	1.00000000	1.56000000	2.34000000	-3.90000000
474.00000000	1.00000000	1.56000000	2.34000000	3.90000000
475.00000000	1.00000000	1.56000000	3.90000000	-2.34000000
476.00000000	1.00000000	1.56000000	3.90000000	2.34000000
477.00000000	1.00000000	-3.90000000	-1.56000000	-2.34000000
478.00000000	1.00000000	-3.90000000	-1.56000000	2.34000000
479.00000000	1.00000000	-3.90000000	1.56000000	-2.34000000
480.00000000	1.00000000	-3.90000000	1.56000000	2.34000000
481.00000000	1.00000000	-2.34000000	-1.56000000	-3.90000000
482.00000000	1.00000000	-2.34000000	-1.56000000	3.90000000
483.00000000	1.00000000	-2.34000000	1.56000000	-3.90000000
484.00000000	1.00000000	-2.34000000	1.56000000	3.90000000
485.00000000	1.00000000	-0.78000000	-4.68000000	-0.78000000
486.00000000	1.00000000	-0.78000000	-4.68000000	0.78000000
487.00000000	1.00000000	0.78000000	-4.68000000	-0.78000000
488.00000000	1.00000000	0.78000000	-4.68000000	0.78000000
489.00000000	1.00000000	2.34000000	-1.56000000	-3.90000000
490.00000000	1.00000000	2.34000000	-1.56000000	3.90000000
491.00000000	1.00000000	2.34000000	1.56000000	-3.90000000
492.00000000	1.00000000	2.34000000	1.56000000	3.90000000
493.00000000	1.00000000	3.90000000	-1.56000000	-2.34000000
494.00000000	1.00000000	3.90000000	-1.56000000	2.34000000
495.00000000	1.00000000	3.90000000	1.56000000	-2.34000000
496.00000000	1.00000000	3.90000000	1.56000000	2.34000000
497.00000000	1.00000000	-3.90000000	-2.34000000	-1.56000000
498.00000000	1.00000000	-3.90000000	-2.34000000	1.56000000
499.00000000	1.00000000	-3.90000000	2.34000000	-1.56000000
500.00000000	1.00000000	-3.90000000	2.34000000	1.56000000
501.00000000	1.00000000	-2.34000000	-3.90000000	-1.56000000
502.00000000	1.00000000	-2.34000000	-3.90000000	1.56000000
503.00000000	1.00000000	-2.34000000	3.90000000	-1.56000000
504.00000000	1.00000000	-2.34000000	3.90000000	1.56000000
505.00000000	1.00000000	-0.78000000	-0.78000000	-4.68000000
506.00000000	1.00000000	-0.78000000	0.78000000	-4.68000000
507.00000000	1.00000000	0.78000000	-0.78000000	-4.68000000
508.00000000	1.00000000	0.78000000	0.78000000	-4.68000000
509.00000000	1.00000000	2.34000000	-3.90000000	-1.56000000
510.00000000	1.00000000	2.34000000	-3.90000000	1.56000000
511.00000000	1.00000000	2.34000000	3.90000000	-1.56000000
512.00000000	1.00000000	2.34000000	3.90000000	1.56000000
513.00000000	1.00000000	3.90000000	-2.34000000	-1.56000000